LAMMPS (2 Aug 2023 - Update 3)
# Compute elastic constant tensor for a crystal
#
# Written by Aidan Thompson (Sandia, athomps@sandia.gov)
#
#  This script uses the following three include files.
#
#   init.mod      (must be modified for different crystal structures)
# 	       	  Define units, deformation parameters and initial
#		  configuration of the atoms and simulation cell.
#
#
#   potential.mod    (must be modified for different pair styles)
# 		     Define pair style and other attributes
#		     not stored in restart file
#
#
#   displace.mod    (displace.mod should not need to be modified)
# 		    Perform positive and negative box displacements
# 		    in direction ${dir} and size ${up}.
# 		    It uses the resultant changes
#		    in stress to compute one
# 		    row of the elastic stiffness tensor
#
#		    Inputs variables:
#		    	   dir = the Voigt deformation component
#		    		    (1,2,3,4,5,6)
#		    Global constants:
#       	    	   up = the deformation magnitude (strain units)
#       		   cfac = conversion from LAMMPS pressure units to
#               	   output units for elastic constants
#
#
#  To run this on a different system, it should only be necessary to
#  modify the files init.mod and potential.mod. In order to calculate
#  the elastic constants correctly, care must be taken to specify
#  the correct units in init.mod (units, cfac and cunits). It is also
#  important to verify that the minimization of energy w.r.t atom
#  positions in the deformed cell is fully converged.
#  One indication of this is that the elastic constants are insensitive
#  to the choice of the variable ${up} in init.mod. Another is to check
#  the final max and two-norm forces reported in the log file. If you know
#  that minimization is not required, you can set maxiter = 0.0 in
#  init.mod.
#

include init.mod
# NOTE: This script can be modified for different atomic structures,
# units, etc. See in.elastic for more info.
#

# Define the finite deformation size. Try several values of this
# variable to verify that results do not depend on it.
variable up equal 1.0e-6

# Define the amount of random jiggle for atoms
# This prevents atoms from staying on saddle points
variable atomjiggle equal 1.0e-5

# Uncomment one of these blocks, depending on what units
# you are using in LAMMPS and for output

# metal units, elastic constants in eV/A^3
#units		metal
#variable cfac equal 6.2414e-7
#variable cunits string eV/A^3

# metal units, elastic constants in GPa
units		metal
variable cfac equal 1.0e-4
variable cunits string GPa

# real units, elastic constants in GPa
#units		real
#variable cfac equal 1.01325e-4
#variable cunits string GPa

# Define minimization parameters
variable etol equal 0.0
variable ftol equal 1.0e-10
variable maxiter equal 10000
variable maxeval equal 50000
variable dmax equal 1.0e-2

variable 	latt0 equal 4.09000014545435  #### provide the lattice constant from your calculation
#variable 	lblock	equal 10

# generate the box and atom positions using a diamond lattice
variable a equal 3.52

boundary	p p p

#lattice         diamond $a
#region		box prism 0 2.0 0 3.0 0 4.0 0.0 0.0 0.0
#create_box	1 box
#create_atoms	1 box
lattice		fcc  ${latt0}  orient  x  1  0  0  orient  y  0  1  0  orient  z  0  0  1  origin  0.0    0.0    0.0
lattice		fcc  4.09000014545435  orient  x  1  0  0  orient  y  0  1  0  orient  z  0  0  1  origin  0.0    0.0    0.0
Lattice spacing in x,y,z = 4.0900001 4.0900001 4.0900001
region		box prism 0 2.0 0 3.0 0 4.0 0.0 0.0 0.0
create_box	1 box
Created triclinic box = (0 0 0) to (8.1800003 12.27 16.360001) with tilt (0 0 0)
  1 by 1 by 1 MPI processor grid
create_atoms	1 box
Created 96 atoms
  using lattice units in triclinic box = (0 0 0) to (8.1800003 12.27 16.360001) with tilt (0 0 0)
  create_atoms CPU = 0.000 seconds
#region          sim_region  block  0  ${lblock}  0  ${lblock}  0  ${lblock}  units  lattice
#create_box      1  sim_region
#create_atoms	1  box

# Need to set mass to something, just to satisfy LAMMPS
mass 1 1.0e-20

include potential.mod
# NOTE: This script can be modified for different pair styles
# See in.elastic for more info.

#Provide potential
pair_style      eam/alloy ### TYPE OF POTENTIAL (eam (OR) eam/alloy)
pair_coeff      *  *  CuAg.eam.alloy Ag ### POTENTIAL FILENAME

# Setup neighbor style
neighbor 1.0 nsq
neigh_modify once no every 1 delay 0 check yes

# Setup minimization style
min_style	     cg
min_modify	     dmax ${dmax} line quadratic
min_modify	     dmax 0.01 line quadratic

# Setup output
thermo		10
thermo_style custom step temp pe press pxx pyy pzz pxy pxz pyz lx ly lz vol fnorm
thermo_modify norm no

# Compute initial state
fix 3 all box/relax  aniso 0.0
minimize ${etol} ${ftol} ${maxiter} ${maxeval}
minimize 0 ${ftol} ${maxiter} ${maxeval}
minimize 0 1e-10 ${maxiter} ${maxeval}
minimize 0 1e-10 10000 ${maxeval}
minimize 0 1e-10 10000 50000
Neighbor list info ...
  update: every = 1 steps, delay = 0 steps, check = yes
  max neighbors/atom: 2000, page size: 100000
  master list distance cutoff = 6.995011
  ghost atom cutoff = 6.995011
  1 neighbor lists, perpetual/occasional/extra = 1 0 0
  (1) pair eam/alloy, perpetual
      attributes: half, newton on
      pair build: half/nsq/newton
      stencil: none
      bin: none
WARNING: Energy due to 3 extra global DOFs will be included in minimizer energies
 (../min.cpp:228)
Per MPI rank memory allocation (min/avg/max) = 4.452 | 4.452 | 4.452 Mbytes
   Step          Temp          PotEng         Press           Pxx            Pyy            Pzz            Pxy            Pxz            Pyz             Lx             Ly             Lz           Volume         Fnorm     
         0   0             -273.6         -3.1611569e-09 -3.1559572e-09 -3.149532e-09  -3.1779816e-09  1.4109678e-11 -2.2274876e-12  1.7467836e-12  8.1800003      12.27          16.360001      1642.0305      7.9708436e-14
         1   0             -273.6         -4.5321473e-10 -4.7725445e-10 -4.262829e-10  -4.5610686e-10  2.9586993e-12  6.4658074e-13 -3.1753546e-12  8.1800003      12.27          16.360001      1642.0305      7.5108792e-14
Loop time of 0.000840524 on 1 procs for 1 steps with 96 atoms

82.8% CPU use with 1 MPI tasks x no OpenMP threads

Minimization stats:
  Stopping criterion = force tolerance
  Energy initial, next-to-last, final = 
     -273.599997573215  -273.599997573215  -273.599997573215
  Force two-norm initial, final = 5.6120893e-12 8.0886798e-13
  Force max component initial, final = 3.2570335e-12 4.891261e-13
  Final line search alpha, max atom move = 1 4.891261e-13
  Iterations, force evaluations = 1 2

MPI task timing breakdown:
Section |  min time  |  avg time  |  max time  |%varavg| %total
---------------------------------------------------------------
Pair    | 0.00074368 | 0.00074368 | 0.00074368 |   0.0 | 88.48
Neigh   | 0          | 0          | 0          |   0.0 |  0.00
Comm    | 1.8415e-05 | 1.8415e-05 | 1.8415e-05 |   0.0 |  2.19
Output  | 0          | 0          | 0          |   0.0 |  0.00
Modify  | 0          | 0          | 0          |   0.0 |  0.00
Other   |            | 7.843e-05  |            |       |  9.33

Nlocal:             96 ave          96 max          96 min
Histogram: 1 0 0 0 0 0 0 0 0 0
Nghost:            976 ave         976 max         976 min
Histogram: 1 0 0 0 0 0 0 0 0 0
Neighs:           3744 ave        3744 max        3744 min
Histogram: 1 0 0 0 0 0 0 0 0 0

Total # of neighbors = 3744
Ave neighs/atom = 39
Neighbor list builds = 0
Dangerous builds = 0

variable tmp equal pxx
variable pxx0 equal ${tmp}
variable pxx0 equal -4.77254446785253e-10
variable tmp equal pyy
variable pyy0 equal ${tmp}
variable pyy0 equal -4.262828959717e-10
variable tmp equal pzz
variable pzz0 equal ${tmp}
variable pzz0 equal -4.56106855768964e-10
variable tmp equal pyz
variable pyz0 equal ${tmp}
variable pyz0 equal -3.17535462994707e-12
variable tmp equal pxz
variable pxz0 equal ${tmp}
variable pxz0 equal 6.46580740213103e-13
variable tmp equal pxy
variable pxy0 equal ${tmp}
variable pxy0 equal 2.95869930338352e-12

variable tmp equal lx
variable lx0 equal ${tmp}
variable lx0 equal 8.18000029090869
variable tmp equal ly
variable ly0 equal ${tmp}
variable ly0 equal 12.270000436363
variable tmp equal lz
variable lz0 equal ${tmp}
variable lz0 equal 16.3600005818174

# These formulas define the derivatives w.r.t. strain components
# Constants uses $, variables use v_
variable d1 equal -(v_pxx1-${pxx0})/(v_delta/v_len0)*${cfac}
variable d1 equal -(v_pxx1--4.77254446785253e-10)/(v_delta/v_len0)*${cfac}
variable d1 equal -(v_pxx1--4.77254446785253e-10)/(v_delta/v_len0)*0.0001
variable d2 equal -(v_pyy1-${pyy0})/(v_delta/v_len0)*${cfac}
variable d2 equal -(v_pyy1--4.262828959717e-10)/(v_delta/v_len0)*${cfac}
variable d2 equal -(v_pyy1--4.262828959717e-10)/(v_delta/v_len0)*0.0001
variable d3 equal -(v_pzz1-${pzz0})/(v_delta/v_len0)*${cfac}
variable d3 equal -(v_pzz1--4.56106855768964e-10)/(v_delta/v_len0)*${cfac}
variable d3 equal -(v_pzz1--4.56106855768964e-10)/(v_delta/v_len0)*0.0001
variable d4 equal -(v_pyz1-${pyz0})/(v_delta/v_len0)*${cfac}
variable d4 equal -(v_pyz1--3.17535462994707e-12)/(v_delta/v_len0)*${cfac}
variable d4 equal -(v_pyz1--3.17535462994707e-12)/(v_delta/v_len0)*0.0001
variable d5 equal -(v_pxz1-${pxz0})/(v_delta/v_len0)*${cfac}
variable d5 equal -(v_pxz1-6.46580740213103e-13)/(v_delta/v_len0)*${cfac}
variable d5 equal -(v_pxz1-6.46580740213103e-13)/(v_delta/v_len0)*0.0001
variable d6 equal -(v_pxy1-${pxy0})/(v_delta/v_len0)*${cfac}
variable d6 equal -(v_pxy1-2.95869930338352e-12)/(v_delta/v_len0)*${cfac}
variable d6 equal -(v_pxy1-2.95869930338352e-12)/(v_delta/v_len0)*0.0001

displace_atoms all random ${atomjiggle} ${atomjiggle} ${atomjiggle} 87287 units box
displace_atoms all random 1e-05 ${atomjiggle} ${atomjiggle} 87287 units box
displace_atoms all random 1e-05 1e-05 ${atomjiggle} 87287 units box
displace_atoms all random 1e-05 1e-05 1e-05 87287 units box
Displacing atoms ...

# Write restart
unfix 3
write_restart restart.equil
System init for write_restart ...

# uxx Perturbation

variable dir equal 1
include displace.mod
# NOTE: This script should not need to be
# modified. See in.elastic for more info.
#
# Find which reference length to use

if "${dir} == 1" then    "variable len0 equal ${lx0}"
variable len0 equal ${lx0}
variable len0 equal 8.18000029090869
if "${dir} == 2" then    "variable len0 equal ${ly0}"
if "${dir} == 3" then    "variable len0 equal ${lz0}"
if "${dir} == 4" then    "variable len0 equal ${lz0}"
if "${dir} == 5" then    "variable len0 equal ${lz0}"
if "${dir} == 6" then    "variable len0 equal ${ly0}"

# Reset box and simulation parameters

clear
box tilt large

The 'box' command has been removed and will be ignored

read_restart restart.equil
Reading restart file ...
  restart file = 2 Aug 2023, LAMMPS = 2 Aug 2023
  restoring atom style atomic from restart
  triclinic box = (4.1383628e-15 6.1949063e-15 8.3344861e-15) to (8.1800003 12.27 16.360001) with tilt (0 0 0)
  1 by 1 by 1 MPI processor grid
  pair style eam/alloy stores no restart info
  96 atoms
  read_restart CPU = 0.001 seconds
include potential.mod
# NOTE: This script can be modified for different pair styles
# See in.elastic for more info.

#Provide potential
pair_style      eam/alloy ### TYPE OF POTENTIAL (eam (OR) eam/alloy)
pair_coeff      *  *  CuAg.eam.alloy Ag ### POTENTIAL FILENAME

# Setup neighbor style
neighbor 1.0 nsq
neigh_modify once no every 1 delay 0 check yes

# Setup minimization style
min_style	     cg
min_modify	     dmax ${dmax} line quadratic
min_modify	     dmax 0.01 line quadratic

# Setup output
thermo		10
thermo_style custom step temp pe press pxx pyy pzz pxy pxz pyz lx ly lz vol fnorm
thermo_modify norm no

# Negative deformation

variable delta equal -${up}*${len0}
variable delta equal -1e-06*${len0}
variable delta equal -1e-06*8.18000029090869
variable deltaxy equal -${up}*xy
variable deltaxy equal -1e-06*xy
variable deltaxz equal -${up}*xz
variable deltaxz equal -1e-06*xz
variable deltayz equal -${up}*yz
variable deltayz equal -1e-06*yz
if "${dir} == 1" then    "change_box all x delta 0 ${delta} xy delta ${deltaxy} xz delta ${deltaxz} remap units box"
change_box all x delta 0 ${delta} xy delta ${deltaxy} xz delta ${deltaxz} remap units box
change_box all x delta 0 -8.18000029090869e-06 xy delta ${deltaxy} xz delta ${deltaxz} remap units box
change_box all x delta 0 -8.18000029090869e-06 xy delta -0 xz delta ${deltaxz} remap units box
change_box all x delta 0 -8.18000029090869e-06 xy delta -0 xz delta -0 remap units box
Changing box ...
  triclinic box = (4.1383628e-15 6.1949063e-15 8.3344861e-15) to (8.1799921 12.27 16.360001) with tilt (0 0 0)
  triclinic box = (4.1383628e-15 6.1949063e-15 8.3344861e-15) to (8.1799921 12.27 16.360001) with tilt (0 0 0)
  triclinic box = (4.1383628e-15 6.1949063e-15 8.3344861e-15) to (8.1799921 12.27 16.360001) with tilt (0 0 0)
if "${dir} == 2" then    "change_box all y delta 0 ${delta} yz delta ${deltayz} remap units box"
if "${dir} == 3" then    "change_box all z delta 0 ${delta} remap units box"
if "${dir} == 4" then    "change_box all yz delta ${delta} remap units box"
if "${dir} == 5" then    "change_box all xz delta ${delta} remap units box"
if "${dir} == 6" then    "change_box all xy delta ${delta} remap units box"

# Relax atoms positions

minimize ${etol} ${ftol} ${maxiter} ${maxeval}
minimize 0 ${ftol} ${maxiter} ${maxeval}
minimize 0 1e-10 ${maxiter} ${maxeval}
minimize 0 1e-10 10000 ${maxeval}
minimize 0 1e-10 10000 50000
Neighbor list info ...
  update: every = 1 steps, delay = 0 steps, check = yes
  max neighbors/atom: 2000, page size: 100000
  master list distance cutoff = 6.995011
  ghost atom cutoff = 6.995011
  1 neighbor lists, perpetual/occasional/extra = 1 0 0
  (1) pair eam/alloy, perpetual
      attributes: half, newton on
      pair build: half/nsq/newton
      stencil: none
      bin: none
Per MPI rank memory allocation (min/avg/max) = 4.448 | 4.448 | 4.448 Mbytes
   Step          Temp          PotEng         Press           Pxx            Pyy            Pzz            Pxy            Pxz            Pyz             Lx             Ly             Lz           Volume         Fnorm     
         1   0             -273.6          1.0400419      1.242477       0.93882468     0.93882383    -6.1767834e-07 -2.211511e-06   4.9988454e-06  8.1799921      12.27          16.360001      1642.0288      0.0005960274 
        10   0             -273.6          1.0399484      1.2423846      0.93873027     0.93873027     7.7120064e-13 -1.1714854e-11 -3.6002704e-11  8.1799921      12.27          16.360001      1642.0288      1.4392791e-06
        20   0             -273.6          1.0399484      1.2423846      0.93873027     0.93873027    -5.207773e-12  -4.0176615e-12  3.4119043e-13  8.1799921      12.27          16.360001      1642.0288      4.6999514e-09
        25   0             -273.6          1.0399484      1.2423846      0.93873027     0.93873027     1.6752509e-11 -7.7074668e-12 -1.6844813e-11  8.1799921      12.27          16.360001      1642.0288      8.3019319e-11
Loop time of 0.00778526 on 1 procs for 24 steps with 96 atoms

100.0% CPU use with 1 MPI tasks x no OpenMP threads

Minimization stats:
  Stopping criterion = force tolerance
  Energy initial, next-to-last, final = 
     -273.599997547105  -273.599997572582  -273.599997572583
  Force two-norm initial, final = 0.0005960274 8.3019319e-11
  Force max component initial, final = 9.6780782e-05 1.3716016e-11
  Final line search alpha, max atom move = 1 1.3716016e-11
  Iterations, force evaluations = 24 48

MPI task timing breakdown:
Section |  min time  |  avg time  |  max time  |%varavg| %total
---------------------------------------------------------------
Pair    | 0.0074475  | 0.0074475  | 0.0074475  |   0.0 | 95.66
Neigh   | 0          | 0          | 0          |   0.0 |  0.00
Comm    | 0.00019286 | 0.00019286 | 0.00019286 |   0.0 |  2.48
Output  | 2.4362e-05 | 2.4362e-05 | 2.4362e-05 |   0.0 |  0.31
Modify  | 0          | 0          | 0          |   0.0 |  0.00
Other   |            | 0.0001206  |            |       |  1.55

Nlocal:             96 ave          96 max          96 min
Histogram: 1 0 0 0 0 0 0 0 0 0
Nghost:            976 ave         976 max         976 min
Histogram: 1 0 0 0 0 0 0 0 0 0
Neighs:           3744 ave        3744 max        3744 min
Histogram: 1 0 0 0 0 0 0 0 0 0

Total # of neighbors = 3744
Ave neighs/atom = 39
Neighbor list builds = 0
Dangerous builds = 0

# Obtain new stress tensor

variable tmp equal pxx
variable pxx1 equal ${tmp}
variable pxx1 equal 1.24238459380268
variable tmp equal pyy
variable pyy1 equal ${tmp}
variable pyy1 equal 0.938730273629142
variable tmp equal pzz
variable pzz1 equal ${tmp}
variable pzz1 equal 0.938730273622945
variable tmp equal pxy
variable pxy1 equal ${tmp}
variable pxy1 equal 1.67525090395945e-11
variable tmp equal pxz
variable pxz1 equal ${tmp}
variable pxz1 equal -7.70746683594483e-12
variable tmp equal pyz
variable pyz1 equal ${tmp}
variable pyz1 equal -1.68448132711431e-11

# Compute elastic constant from pressure tensor

variable C1neg equal ${d1}
variable C1neg equal 124.238459427993
variable C2neg equal ${d2}
variable C2neg equal 93.8730274055425
variable C3neg equal ${d3}
variable C3neg equal 93.8730274079052
variable C4neg equal ${d4}
variable C4neg equal -1.3669458641196e-09
variable C5neg equal ${d5}
variable C5neg equal -8.35404757615793e-10
variable C6neg equal ${d6}
variable C6neg equal 1.3793809736211e-09

# Reset box and simulation parameters

clear
box tilt large

The 'box' command has been removed and will be ignored

read_restart restart.equil
Reading restart file ...
  restart file = 2 Aug 2023, LAMMPS = 2 Aug 2023
  restoring atom style atomic from restart
  triclinic box = (4.1383628e-15 6.1949063e-15 8.3344861e-15) to (8.1800003 12.27 16.360001) with tilt (0 0 0)
  1 by 1 by 1 MPI processor grid
  pair style eam/alloy stores no restart info
  96 atoms
  read_restart CPU = 0.000 seconds
include potential.mod
# NOTE: This script can be modified for different pair styles
# See in.elastic for more info.

#Provide potential
pair_style      eam/alloy ### TYPE OF POTENTIAL (eam (OR) eam/alloy)
pair_coeff      *  *  CuAg.eam.alloy Ag ### POTENTIAL FILENAME

# Setup neighbor style
neighbor 1.0 nsq
neigh_modify once no every 1 delay 0 check yes

# Setup minimization style
min_style	     cg
min_modify	     dmax ${dmax} line quadratic
min_modify	     dmax 0.01 line quadratic

# Setup output
thermo		10
thermo_style custom step temp pe press pxx pyy pzz pxy pxz pyz lx ly lz vol fnorm
thermo_modify norm no

# Positive deformation

variable delta equal ${up}*${len0}
variable delta equal 1e-06*${len0}
variable delta equal 1e-06*8.18000029090869
variable deltaxy equal ${up}*xy
variable deltaxy equal 1e-06*xy
variable deltaxz equal ${up}*xz
variable deltaxz equal 1e-06*xz
variable deltayz equal ${up}*yz
variable deltayz equal 1e-06*yz
if "${dir} == 1" then    "change_box all x delta 0 ${delta} xy delta ${deltaxy} xz delta ${deltaxz} remap units box"
change_box all x delta 0 ${delta} xy delta ${deltaxy} xz delta ${deltaxz} remap units box
change_box all x delta 0 8.18000029090869e-06 xy delta ${deltaxy} xz delta ${deltaxz} remap units box
change_box all x delta 0 8.18000029090869e-06 xy delta 0 xz delta ${deltaxz} remap units box
change_box all x delta 0 8.18000029090869e-06 xy delta 0 xz delta 0 remap units box
Changing box ...
  triclinic box = (4.1383628e-15 6.1949063e-15 8.3344861e-15) to (8.1800085 12.27 16.360001) with tilt (0 0 0)
  triclinic box = (4.1383628e-15 6.1949063e-15 8.3344861e-15) to (8.1800085 12.27 16.360001) with tilt (0 0 0)
  triclinic box = (4.1383628e-15 6.1949063e-15 8.3344861e-15) to (8.1800085 12.27 16.360001) with tilt (0 0 0)
if "${dir} == 2" then    "change_box all y delta 0 ${delta} yz delta ${deltayz} remap units box"
if "${dir} == 3" then    "change_box all z delta 0 ${delta} remap units box"
if "${dir} == 4" then    "change_box all yz delta ${delta} remap units box"
if "${dir} == 5" then    "change_box all xz delta ${delta} remap units box"
if "${dir} == 6" then    "change_box all xy delta ${delta} remap units box"

# Relax atoms positions

minimize ${etol} ${ftol} ${maxiter} ${maxeval}
minimize 0 ${ftol} ${maxiter} ${maxeval}
minimize 0 1e-10 ${maxiter} ${maxeval}
minimize 0 1e-10 10000 ${maxeval}
minimize 0 1e-10 10000 50000
Neighbor list info ...
  update: every = 1 steps, delay = 0 steps, check = yes
  max neighbors/atom: 2000, page size: 100000
  master list distance cutoff = 6.995011
  ghost atom cutoff = 6.995011
  1 neighbor lists, perpetual/occasional/extra = 1 0 0
  (1) pair eam/alloy, perpetual
      attributes: half, newton on
      pair build: half/nsq/newton
      stencil: none
      bin: none
Per MPI rank memory allocation (min/avg/max) = 4.448 | 4.448 | 4.448 Mbytes
   Step          Temp          PotEng         Press           Pxx            Pyy            Pzz            Pxy            Pxz            Pyz             Lx             Ly             Lz           Volume         Fnorm     
         1   0             -273.6         -1.0398493     -1.2422873     -0.93862995    -0.9386308     -6.1769664e-07 -2.2114655e-06  4.9988307e-06  8.1800085      12.27          16.360001      1642.0321      0.00059602235
        10   0             -273.6         -1.0399428     -1.2423797     -0.93872436    -0.93872436    -7.1041295e-12 -3.0592539e-12 -3.3735883e-11  8.1800085      12.27          16.360001      1642.0321      1.4392612e-06
        20   0             -273.6         -1.0399428     -1.2423797     -0.93872436    -0.93872436     1.2259209e-11 -1.118409e-11   1.9614502e-12  8.1800085      12.27          16.360001      1642.0321      4.6991931e-09
        25   0             -273.6         -1.0399428     -1.2423797     -0.93872436    -0.93872436     3.7385701e-13 -1.0106406e-11  1.9545052e-12  8.1800085      12.27          16.360001      1642.0321      8.5700961e-11
Loop time of 0.0076232 on 1 procs for 24 steps with 96 atoms

100.0% CPU use with 1 MPI tasks x no OpenMP threads

Minimization stats:
  Stopping criterion = force tolerance
  Energy initial, next-to-last, final = 
     -273.599997547106  -273.599997572581  -273.599997572581
  Force two-norm initial, final = 0.00059602235 8.5700961e-11
  Force max component initial, final = 9.6779724e-05 1.3898119e-11
  Final line search alpha, max atom move = 1 1.3898119e-11
  Iterations, force evaluations = 24 48

MPI task timing breakdown:
Section |  min time  |  avg time  |  max time  |%varavg| %total
---------------------------------------------------------------
Pair    | 0.0073017  | 0.0073017  | 0.0073017  |   0.0 | 95.78
Neigh   | 0          | 0          | 0          |   0.0 |  0.00
Comm    | 0.00017953 | 0.00017953 | 0.00017953 |   0.0 |  2.36
Output  | 2.3135e-05 | 2.3135e-05 | 2.3135e-05 |   0.0 |  0.30
Modify  | 0          | 0          | 0          |   0.0 |  0.00
Other   |            | 0.0001188  |            |       |  1.56

Nlocal:             96 ave          96 max          96 min
Histogram: 1 0 0 0 0 0 0 0 0 0
Nghost:            976 ave         976 max         976 min
Histogram: 1 0 0 0 0 0 0 0 0 0
Neighs:           3744 ave        3744 max        3744 min
Histogram: 1 0 0 0 0 0 0 0 0 0

Total # of neighbors = 3744
Ave neighs/atom = 39
Neighbor list builds = 0
Dangerous builds = 0

# Obtain new stress tensor

variable tmp equal pe
variable e1 equal ${tmp}
variable e1 equal -273.599997572581
variable tmp equal press
variable p1 equal ${tmp}
variable p1 equal -1.03994280515419
variable tmp equal pxx
variable pxx1 equal ${tmp}
variable pxx1 equal -1.24237969963376
variable tmp equal pyy
variable pyy1 equal ${tmp}
variable pyy1 equal -0.938724357903544
variable tmp equal pzz
variable pzz1 equal ${tmp}
variable pzz1 equal -0.938724357925262
variable tmp equal pxy
variable pxy1 equal ${tmp}
variable pxy1 equal 3.73857010945526e-13
variable tmp equal pxz
variable pxz1 equal ${tmp}
variable pxz1 equal -1.01064059319954e-11
variable tmp equal pyz
variable pyz1 equal ${tmp}
variable pyz1 equal 1.95450519510966e-12

# Compute elastic constant from pressure tensor

variable C1pos equal ${d1}
variable C1pos equal 124.237969915651
variable C2pos equal ${d2}
variable C2pos equal 93.8724357477261
variable C3pos equal ${d3}
variable C3pos equal 93.8724357469155
variable C4pos equal ${d4}
variable C4pos equal -5.12985982505673e-10
variable C5pos equal ${d5}
variable C5pos equal 1.07529866722085e-09
variable C6pos equal ${d6}
variable C6pos equal 2.58484229243799e-10

# Combine positive and negative

variable C1${dir} equal 0.5*(${C1neg}+${C1pos})
variable C11 equal 0.5*(${C1neg}+${C1pos})
variable C11 equal 0.5*(124.238459427993+${C1pos})
variable C11 equal 0.5*(124.238459427993+124.237969915651)
variable C2${dir} equal 0.5*(${C2neg}+${C2pos})
variable C21 equal 0.5*(${C2neg}+${C2pos})
variable C21 equal 0.5*(93.8730274055425+${C2pos})
variable C21 equal 0.5*(93.8730274055425+93.8724357477261)
variable C3${dir} equal 0.5*(${C3neg}+${C3pos})
variable C31 equal 0.5*(${C3neg}+${C3pos})
variable C31 equal 0.5*(93.8730274079052+${C3pos})
variable C31 equal 0.5*(93.8730274079052+93.8724357469155)
variable C4${dir} equal 0.5*(${C4neg}+${C4pos})
variable C41 equal 0.5*(${C4neg}+${C4pos})
variable C41 equal 0.5*(-1.3669458641196e-09+${C4pos})
variable C41 equal 0.5*(-1.3669458641196e-09+-5.12985982505673e-10)
variable C5${dir} equal 0.5*(${C5neg}+${C5pos})
variable C51 equal 0.5*(${C5neg}+${C5pos})
variable C51 equal 0.5*(-8.35404757615793e-10+${C5pos})
variable C51 equal 0.5*(-8.35404757615793e-10+1.07529866722085e-09)
variable C6${dir} equal 0.5*(${C6neg}+${C6pos})
variable C61 equal 0.5*(${C6neg}+${C6pos})
variable C61 equal 0.5*(1.3793809736211e-09+${C6pos})
variable C61 equal 0.5*(1.3793809736211e-09+2.58484229243799e-10)

# Delete dir to make sure it is not reused

variable dir delete

# uyy Perturbation

variable dir equal 2
include displace.mod
# NOTE: This script should not need to be
# modified. See in.elastic for more info.
#
# Find which reference length to use

if "${dir} == 1" then    "variable len0 equal ${lx0}"
if "${dir} == 2" then    "variable len0 equal ${ly0}"
variable len0 equal ${ly0}
variable len0 equal 12.270000436363
if "${dir} == 3" then    "variable len0 equal ${lz0}"
if "${dir} == 4" then    "variable len0 equal ${lz0}"
if "${dir} == 5" then    "variable len0 equal ${lz0}"
if "${dir} == 6" then    "variable len0 equal ${ly0}"

# Reset box and simulation parameters

clear
box tilt large

The 'box' command has been removed and will be ignored

read_restart restart.equil
Reading restart file ...
  restart file = 2 Aug 2023, LAMMPS = 2 Aug 2023
  restoring atom style atomic from restart
  triclinic box = (4.1383628e-15 6.1949063e-15 8.3344861e-15) to (8.1800003 12.27 16.360001) with tilt (0 0 0)
  1 by 1 by 1 MPI processor grid
  pair style eam/alloy stores no restart info
  96 atoms
  read_restart CPU = 0.000 seconds
include potential.mod
# NOTE: This script can be modified for different pair styles
# See in.elastic for more info.

#Provide potential
pair_style      eam/alloy ### TYPE OF POTENTIAL (eam (OR) eam/alloy)
pair_coeff      *  *  CuAg.eam.alloy Ag ### POTENTIAL FILENAME

# Setup neighbor style
neighbor 1.0 nsq
neigh_modify once no every 1 delay 0 check yes

# Setup minimization style
min_style	     cg
min_modify	     dmax ${dmax} line quadratic
min_modify	     dmax 0.01 line quadratic

# Setup output
thermo		10
thermo_style custom step temp pe press pxx pyy pzz pxy pxz pyz lx ly lz vol fnorm
thermo_modify norm no

# Negative deformation

variable delta equal -${up}*${len0}
variable delta equal -1e-06*${len0}
variable delta equal -1e-06*12.270000436363
variable deltaxy equal -${up}*xy
variable deltaxy equal -1e-06*xy
variable deltaxz equal -${up}*xz
variable deltaxz equal -1e-06*xz
variable deltayz equal -${up}*yz
variable deltayz equal -1e-06*yz
if "${dir} == 1" then    "change_box all x delta 0 ${delta} xy delta ${deltaxy} xz delta ${deltaxz} remap units box"
if "${dir} == 2" then    "change_box all y delta 0 ${delta} yz delta ${deltayz} remap units box"
change_box all y delta 0 ${delta} yz delta ${deltayz} remap units box
change_box all y delta 0 -1.2270000436363e-05 yz delta ${deltayz} remap units box
change_box all y delta 0 -1.2270000436363e-05 yz delta -0 remap units box
Changing box ...
  triclinic box = (4.1383628e-15 6.1949063e-15 8.3344861e-15) to (8.1800003 12.269988 16.360001) with tilt (0 0 0)
  triclinic box = (4.1383628e-15 6.1949063e-15 8.3344861e-15) to (8.1800003 12.269988 16.360001) with tilt (0 0 0)
if "${dir} == 3" then    "change_box all z delta 0 ${delta} remap units box"
if "${dir} == 4" then    "change_box all yz delta ${delta} remap units box"
if "${dir} == 5" then    "change_box all xz delta ${delta} remap units box"
if "${dir} == 6" then    "change_box all xy delta ${delta} remap units box"

# Relax atoms positions

minimize ${etol} ${ftol} ${maxiter} ${maxeval}
minimize 0 ${ftol} ${maxiter} ${maxeval}
minimize 0 1e-10 ${maxiter} ${maxeval}
minimize 0 1e-10 10000 ${maxeval}
minimize 0 1e-10 10000 50000
Neighbor list info ...
  update: every = 1 steps, delay = 0 steps, check = yes
  max neighbors/atom: 2000, page size: 100000
  master list distance cutoff = 6.995011
  ghost atom cutoff = 6.995011
  1 neighbor lists, perpetual/occasional/extra = 1 0 0
  (1) pair eam/alloy, perpetual
      attributes: half, newton on
      pair build: half/nsq/newton
      stencil: none
      bin: none
Per MPI rank memory allocation (min/avg/max) = 4.448 | 4.448 | 4.448 Mbytes
   Step          Temp          PotEng         Press           Pxx            Pyy            Pzz            Pxy            Pxz            Pyz             Lx             Ly             Lz           Volume         Fnorm     
         1   0             -273.6          1.0400419      0.93882272     1.242479       0.93882383    -6.1770002e-07 -2.2115098e-06  4.9988376e-06  8.1800003      12.269988      16.360001      1642.0288      0.00059602743
        10   0             -273.6          1.0399484      0.93873027     1.2423846      0.93873027     1.1420117e-11  1.010136e-12  -3.3739688e-11  8.1800003      12.269988      16.360001      1642.0288      1.4392868e-06
        20   0             -273.6          1.0399484      0.93873027     1.2423846      0.93873027     8.0454528e-12 -2.1158936e-11  4.3868276e-12  8.1800003      12.269988      16.360001      1642.0288      4.6994741e-09
        25   0             -273.6          1.0399484      0.93873027     1.2423846      0.93873027    -6.7730247e-12 -1.1823416e-11  2.4201897e-12  8.1800003      12.269988      16.360001      1642.0288      8.346521e-11 
Loop time of 0.00916511 on 1 procs for 24 steps with 96 atoms

100.0% CPU use with 1 MPI tasks x no OpenMP threads

Minimization stats:
  Stopping criterion = force tolerance
  Energy initial, next-to-last, final = 
     -273.599997547105  -273.599997572581  -273.599997572582
  Force two-norm initial, final = 0.00059602743 8.346521e-11
  Force max component initial, final = 9.678072e-05 1.3710972e-11
  Final line search alpha, max atom move = 1 1.3710972e-11
  Iterations, force evaluations = 24 48

MPI task timing breakdown:
Section |  min time  |  avg time  |  max time  |%varavg| %total
---------------------------------------------------------------
Pair    | 0.0087622  | 0.0087622  | 0.0087622  |   0.0 | 95.60
Neigh   | 0          | 0          | 0          |   0.0 |  0.00
Comm    | 0.00020609 | 0.00020609 | 0.00020609 |   0.0 |  2.25
Output  | 3.0763e-05 | 3.0763e-05 | 3.0763e-05 |   0.0 |  0.34
Modify  | 0          | 0          | 0          |   0.0 |  0.00
Other   |            | 0.0001661  |            |       |  1.81

Nlocal:             96 ave          96 max          96 min
Histogram: 1 0 0 0 0 0 0 0 0 0
Nghost:            976 ave         976 max         976 min
Histogram: 1 0 0 0 0 0 0 0 0 0
Neighs:           3744 ave        3744 max        3744 min
Histogram: 1 0 0 0 0 0 0 0 0 0

Total # of neighbors = 3744
Ave neighs/atom = 39
Neighbor list builds = 0
Dangerous builds = 0

# Obtain new stress tensor

variable tmp equal pxx
variable pxx1 equal ${tmp}
variable pxx1 equal 0.938730273507471
variable tmp equal pyy
variable pyy1 equal ${tmp}
variable pyy1 equal 1.24238459371754
variable tmp equal pzz
variable pzz1 equal ${tmp}
variable pzz1 equal 0.93873027350931
variable tmp equal pxy
variable pxy1 equal ${tmp}
variable pxy1 equal -6.77302465774385e-12
variable tmp equal pxz
variable pxz1 equal ${tmp}
variable pxz1 equal -1.18234155949899e-11
variable tmp equal pyz
variable pyz1 equal ${tmp}
variable pyz1 equal 2.42018965726237e-12

# Compute elastic constant from pressure tensor

variable C1neg equal ${d1}
variable C1neg equal 93.8730273984726
variable C2neg equal ${d2}
variable C2neg equal 124.238459414382
variable C3neg equal ${d3}
variable C3neg equal 93.8730273965417
variable C4neg equal ${d4}
variable C4neg equal 5.59554428720944e-10
variable C5neg equal ${d5}
variable C5neg equal -1.2469996335203e-09
variable C6neg equal ${d6}
variable C6neg equal -9.73172396112737e-10

# Reset box and simulation parameters

clear
box tilt large

The 'box' command has been removed and will be ignored

read_restart restart.equil
Reading restart file ...
  restart file = 2 Aug 2023, LAMMPS = 2 Aug 2023
  restoring atom style atomic from restart
  triclinic box = (4.1383628e-15 6.1949063e-15 8.3344861e-15) to (8.1800003 12.27 16.360001) with tilt (0 0 0)
  1 by 1 by 1 MPI processor grid
  pair style eam/alloy stores no restart info
  96 atoms
  read_restart CPU = 0.000 seconds
include potential.mod
# NOTE: This script can be modified for different pair styles
# See in.elastic for more info.

#Provide potential
pair_style      eam/alloy ### TYPE OF POTENTIAL (eam (OR) eam/alloy)
pair_coeff      *  *  CuAg.eam.alloy Ag ### POTENTIAL FILENAME

# Setup neighbor style
neighbor 1.0 nsq
neigh_modify once no every 1 delay 0 check yes

# Setup minimization style
min_style	     cg
min_modify	     dmax ${dmax} line quadratic
min_modify	     dmax 0.01 line quadratic

# Setup output
thermo		10
thermo_style custom step temp pe press pxx pyy pzz pxy pxz pyz lx ly lz vol fnorm
thermo_modify norm no

# Positive deformation

variable delta equal ${up}*${len0}
variable delta equal 1e-06*${len0}
variable delta equal 1e-06*12.270000436363
variable deltaxy equal ${up}*xy
variable deltaxy equal 1e-06*xy
variable deltaxz equal ${up}*xz
variable deltaxz equal 1e-06*xz
variable deltayz equal ${up}*yz
variable deltayz equal 1e-06*yz
if "${dir} == 1" then    "change_box all x delta 0 ${delta} xy delta ${deltaxy} xz delta ${deltaxz} remap units box"
if "${dir} == 2" then    "change_box all y delta 0 ${delta} yz delta ${deltayz} remap units box"
change_box all y delta 0 ${delta} yz delta ${deltayz} remap units box
change_box all y delta 0 1.2270000436363e-05 yz delta ${deltayz} remap units box
change_box all y delta 0 1.2270000436363e-05 yz delta 0 remap units box
Changing box ...
  triclinic box = (4.1383628e-15 6.1949063e-15 8.3344861e-15) to (8.1800003 12.270013 16.360001) with tilt (0 0 0)
  triclinic box = (4.1383628e-15 6.1949063e-15 8.3344861e-15) to (8.1800003 12.270013 16.360001) with tilt (0 0 0)
if "${dir} == 3" then    "change_box all z delta 0 ${delta} remap units box"
if "${dir} == 4" then    "change_box all yz delta ${delta} remap units box"
if "${dir} == 5" then    "change_box all xz delta ${delta} remap units box"
if "${dir} == 6" then    "change_box all xy delta ${delta} remap units box"

# Relax atoms positions

minimize ${etol} ${ftol} ${maxiter} ${maxeval}
minimize 0 ${ftol} ${maxiter} ${maxeval}
minimize 0 1e-10 ${maxiter} ${maxeval}
minimize 0 1e-10 10000 ${maxeval}
minimize 0 1e-10 10000 50000
Neighbor list info ...
  update: every = 1 steps, delay = 0 steps, check = yes
  max neighbors/atom: 2000, page size: 100000
  master list distance cutoff = 6.995011
  ghost atom cutoff = 6.995011
  1 neighbor lists, perpetual/occasional/extra = 1 0 0
  (1) pair eam/alloy, perpetual
      attributes: half, newton on
      pair build: half/nsq/newton
      stencil: none
      bin: none
Per MPI rank memory allocation (min/avg/max) = 4.448 | 4.448 | 4.448 Mbytes
   Step          Temp          PotEng         Press           Pxx            Pyy            Pzz            Pxy            Pxz            Pyz             Lx             Ly             Lz           Volume         Fnorm     
         1   0             -273.6         -1.0398493     -0.93863191    -1.2422853     -0.9386308     -6.1768048e-07 -2.2114828e-06  4.9988041e-06  8.1800003      12.270013      16.360001      1642.0321      0.00059602232
        10   0             -273.6         -1.0399428     -0.93872436    -1.2423797     -0.93872436     9.978195e-12   5.0163036e-12 -3.9665872e-11  8.1800003      12.270013      16.360001      1642.0321      1.4392535e-06
        20   0             -273.6         -1.0399428     -0.93872436    -1.2423797     -0.93872436     3.1882577e-12 -5.6414259e-12  1.1332263e-11  8.1800003      12.270013      16.360001      1642.0321      4.6996809e-09
        25   0             -273.6         -1.0399428     -0.93872436    -1.2423797     -0.93872436     4.4854378e-14 -1.778148e-11  -3.8424706e-12  8.1800003      12.270013      16.360001      1642.0321      8.5286256e-11
Loop time of 0.00767655 on 1 procs for 24 steps with 96 atoms

100.0% CPU use with 1 MPI tasks x no OpenMP threads

Minimization stats:
  Stopping criterion = force tolerance
  Energy initial, next-to-last, final = 
     -273.599997547106  -273.599997572581  -273.599997572581
  Force two-norm initial, final = 0.00059602232 8.5286256e-11
  Force max component initial, final = 9.6779786e-05 1.4451603e-11
  Final line search alpha, max atom move = 1 1.4451603e-11
  Iterations, force evaluations = 24 48

MPI task timing breakdown:
Section |  min time  |  avg time  |  max time  |%varavg| %total
---------------------------------------------------------------
Pair    | 0.0073345  | 0.0073345  | 0.0073345  |   0.0 | 95.54
Neigh   | 0          | 0          | 0          |   0.0 |  0.00
Comm    | 0.00019606 | 0.00019606 | 0.00019606 |   0.0 |  2.55
Output  | 2.3065e-05 | 2.3065e-05 | 2.3065e-05 |   0.0 |  0.30
Modify  | 0          | 0          | 0          |   0.0 |  0.00
Other   |            | 0.0001229  |            |       |  1.60

Nlocal:             96 ave          96 max          96 min
Histogram: 1 0 0 0 0 0 0 0 0 0
Nghost:            976 ave         976 max         976 min
Histogram: 1 0 0 0 0 0 0 0 0 0
Neighs:           3744 ave        3744 max        3744 min
Histogram: 1 0 0 0 0 0 0 0 0 0

Total # of neighbors = 3744
Ave neighs/atom = 39
Neighbor list builds = 0
Dangerous builds = 0

# Obtain new stress tensor

variable tmp equal pe
variable e1 equal ${tmp}
variable e1 equal -273.599997572581
variable tmp equal press
variable p1 equal ${tmp}
variable p1 equal -1.03994280509412
variable tmp equal pxx
variable pxx1 equal ${tmp}
variable pxx1 equal -0.938724357893566
variable tmp equal pyy
variable pyy1 equal ${tmp}
variable pyy1 equal -1.24237969953357
variable tmp equal pzz
variable pzz1 equal ${tmp}
variable pzz1 equal -0.938724357855233
variable tmp equal pxy
variable pxy1 equal ${tmp}
variable pxy1 equal 4.48543782232323e-14
variable tmp equal pxz
variable pxz1 equal ${tmp}
variable pxz1 equal -1.77814795975083e-11
variable tmp equal pyz
variable pyz1 equal ${tmp}
variable pyz1 equal -3.84247059724315e-12

# Compute elastic constant from pressure tensor

variable C1pos equal ${d1}
variable C1pos equal 93.8724357416312
variable C2pos equal ${d2}
variable C2pos equal 124.237969910729
variable C3pos equal ${d3}
variable C3pos equal 93.8724357399126
variable C4pos equal ${d4}
variable C4pos equal 6.6711596729608e-11
variable C5pos equal ${d5}
variable C5pos equal 1.84280603377214e-09
variable C6pos equal ${d6}
variable C6pos equal 2.91384492516029e-10

# Combine positive and negative

variable C1${dir} equal 0.5*(${C1neg}+${C1pos})
variable C12 equal 0.5*(${C1neg}+${C1pos})
variable C12 equal 0.5*(93.8730273984726+${C1pos})
variable C12 equal 0.5*(93.8730273984726+93.8724357416312)
variable C2${dir} equal 0.5*(${C2neg}+${C2pos})
variable C22 equal 0.5*(${C2neg}+${C2pos})
variable C22 equal 0.5*(124.238459414382+${C2pos})
variable C22 equal 0.5*(124.238459414382+124.237969910729)
variable C3${dir} equal 0.5*(${C3neg}+${C3pos})
variable C32 equal 0.5*(${C3neg}+${C3pos})
variable C32 equal 0.5*(93.8730273965417+${C3pos})
variable C32 equal 0.5*(93.8730273965417+93.8724357399126)
variable C4${dir} equal 0.5*(${C4neg}+${C4pos})
variable C42 equal 0.5*(${C4neg}+${C4pos})
variable C42 equal 0.5*(5.59554428720944e-10+${C4pos})
variable C42 equal 0.5*(5.59554428720944e-10+6.6711596729608e-11)
variable C5${dir} equal 0.5*(${C5neg}+${C5pos})
variable C52 equal 0.5*(${C5neg}+${C5pos})
variable C52 equal 0.5*(-1.2469996335203e-09+${C5pos})
variable C52 equal 0.5*(-1.2469996335203e-09+1.84280603377214e-09)
variable C6${dir} equal 0.5*(${C6neg}+${C6pos})
variable C62 equal 0.5*(${C6neg}+${C6pos})
variable C62 equal 0.5*(-9.73172396112737e-10+${C6pos})
variable C62 equal 0.5*(-9.73172396112737e-10+2.91384492516029e-10)

# Delete dir to make sure it is not reused

variable dir delete

# uzz Perturbation

variable dir equal 3
include displace.mod
# NOTE: This script should not need to be
# modified. See in.elastic for more info.
#
# Find which reference length to use

if "${dir} == 1" then    "variable len0 equal ${lx0}"
if "${dir} == 2" then    "variable len0 equal ${ly0}"
if "${dir} == 3" then    "variable len0 equal ${lz0}"
variable len0 equal ${lz0}
variable len0 equal 16.3600005818174
if "${dir} == 4" then    "variable len0 equal ${lz0}"
if "${dir} == 5" then    "variable len0 equal ${lz0}"
if "${dir} == 6" then    "variable len0 equal ${ly0}"

# Reset box and simulation parameters

clear
box tilt large

The 'box' command has been removed and will be ignored

read_restart restart.equil
Reading restart file ...
  restart file = 2 Aug 2023, LAMMPS = 2 Aug 2023
  restoring atom style atomic from restart
  triclinic box = (4.1383628e-15 6.1949063e-15 8.3344861e-15) to (8.1800003 12.27 16.360001) with tilt (0 0 0)
  1 by 1 by 1 MPI processor grid
  pair style eam/alloy stores no restart info
  96 atoms
  read_restart CPU = 0.000 seconds
include potential.mod
# NOTE: This script can be modified for different pair styles
# See in.elastic for more info.

#Provide potential
pair_style      eam/alloy ### TYPE OF POTENTIAL (eam (OR) eam/alloy)
pair_coeff      *  *  CuAg.eam.alloy Ag ### POTENTIAL FILENAME

# Setup neighbor style
neighbor 1.0 nsq
neigh_modify once no every 1 delay 0 check yes

# Setup minimization style
min_style	     cg
min_modify	     dmax ${dmax} line quadratic
min_modify	     dmax 0.01 line quadratic

# Setup output
thermo		10
thermo_style custom step temp pe press pxx pyy pzz pxy pxz pyz lx ly lz vol fnorm
thermo_modify norm no

# Negative deformation

variable delta equal -${up}*${len0}
variable delta equal -1e-06*${len0}
variable delta equal -1e-06*16.3600005818174
variable deltaxy equal -${up}*xy
variable deltaxy equal -1e-06*xy
variable deltaxz equal -${up}*xz
variable deltaxz equal -1e-06*xz
variable deltayz equal -${up}*yz
variable deltayz equal -1e-06*yz
if "${dir} == 1" then    "change_box all x delta 0 ${delta} xy delta ${deltaxy} xz delta ${deltaxz} remap units box"
if "${dir} == 2" then    "change_box all y delta 0 ${delta} yz delta ${deltayz} remap units box"
if "${dir} == 3" then    "change_box all z delta 0 ${delta} remap units box"
change_box all z delta 0 ${delta} remap units box
change_box all z delta 0 -1.63600005818174e-05 remap units box
Changing box ...
  triclinic box = (4.1383628e-15 6.1949063e-15 8.3344861e-15) to (8.1800003 12.27 16.359984) with tilt (0 0 0)
if "${dir} == 4" then    "change_box all yz delta ${delta} remap units box"
if "${dir} == 5" then    "change_box all xz delta ${delta} remap units box"
if "${dir} == 6" then    "change_box all xy delta ${delta} remap units box"

# Relax atoms positions

minimize ${etol} ${ftol} ${maxiter} ${maxeval}
minimize 0 ${ftol} ${maxiter} ${maxeval}
minimize 0 1e-10 ${maxiter} ${maxeval}
minimize 0 1e-10 10000 ${maxeval}
minimize 0 1e-10 10000 50000
Neighbor list info ...
  update: every = 1 steps, delay = 0 steps, check = yes
  max neighbors/atom: 2000, page size: 100000
  master list distance cutoff = 6.995011
  ghost atom cutoff = 6.995011
  1 neighbor lists, perpetual/occasional/extra = 1 0 0
  (1) pair eam/alloy, perpetual
      attributes: half, newton on
      pair build: half/nsq/newton
      stencil: none
      bin: none
Per MPI rank memory allocation (min/avg/max) = 4.448 | 4.448 | 4.448 Mbytes
   Step          Temp          PotEng         Press           Pxx            Pyy            Pzz            Pxy            Pxz            Pyz             Lx             Ly             Lz           Volume         Fnorm     
         1   0             -273.6          1.0400419      0.93882272     0.93882468     1.2424782     -6.1771444e-07 -2.2114926e-06  4.9988417e-06  8.1800003      12.27          16.359984      1642.0288      0.00059602745
        10   0             -273.6          1.0399484      0.93873027     0.93873027     1.2423846      7.0436325e-12 -1.3043159e-11 -3.0511383e-11  8.1800003      12.27          16.359984      1642.0288      1.4392911e-06
        20   0             -273.6          1.0399484      0.93873027     0.93873027     1.2423846     -5.8236756e-12 -9.1045451e-12  1.9704738e-12  8.1800003      12.27          16.359984      1642.0288      4.6993025e-09
        25   0             -273.6          1.0399484      0.93873027     0.93873027     1.2423846     -4.4033547e-12 -3.1558424e-12 -1.6305763e-12  8.1800003      12.27          16.359984      1642.0288      8.3915176e-11
Loop time of 0.00769574 on 1 procs for 24 steps with 96 atoms

100.0% CPU use with 1 MPI tasks x no OpenMP threads

Minimization stats:
  Stopping criterion = force tolerance
  Energy initial, next-to-last, final = 
     -273.599997547105  -273.599997572582  -273.599997572583
  Force two-norm initial, final = 0.00059602745 8.3915176e-11
  Force max component initial, final = 9.6780545e-05 1.5401881e-11
  Final line search alpha, max atom move = 1 1.5401881e-11
  Iterations, force evaluations = 24 48

MPI task timing breakdown:
Section |  min time  |  avg time  |  max time  |%varavg| %total
---------------------------------------------------------------
Pair    | 0.0073745  | 0.0073745  | 0.0073745  |   0.0 | 95.83
Neigh   | 0          | 0          | 0          |   0.0 |  0.00
Comm    | 0.00017959 | 0.00017959 | 0.00017959 |   0.0 |  2.33
Output  | 2.3533e-05 | 2.3533e-05 | 2.3533e-05 |   0.0 |  0.31
Modify  | 0          | 0          | 0          |   0.0 |  0.00
Other   |            | 0.0001181  |            |       |  1.54

Nlocal:             96 ave          96 max          96 min
Histogram: 1 0 0 0 0 0 0 0 0 0
Nghost:            976 ave         976 max         976 min
Histogram: 1 0 0 0 0 0 0 0 0 0
Neighs:           3744 ave        3744 max        3744 min
Histogram: 1 0 0 0 0 0 0 0 0 0

Total # of neighbors = 3744
Ave neighs/atom = 39
Neighbor list builds = 0
Dangerous builds = 0

# Obtain new stress tensor

variable tmp equal pxx
variable pxx1 equal ${tmp}
variable pxx1 equal 0.938730273588429
variable tmp equal pyy
variable pyy1 equal ${tmp}
variable pyy1 equal 0.938730273632459
variable tmp equal pzz
variable pzz1 equal ${tmp}
variable pzz1 equal 1.2423845937962
variable tmp equal pxy
variable pxy1 equal ${tmp}
variable pxy1 equal -4.40335465378499e-12
variable tmp equal pxz
variable pxz1 equal ${tmp}
variable pxz1 equal -3.15584237332133e-12
variable tmp equal pyz
variable pyz1 equal ${tmp}
variable pyz1 equal -1.63057632519257e-12

# Compute elastic constant from pressure tensor

variable C1neg equal ${d1}
variable C1neg equal 93.8730274065684
variable C2neg equal ${d2}
variable C2neg equal 93.8730274058742
variable C3neg equal ${d3}
variable C3neg equal 124.238459425231
variable C4neg equal ${d4}
variable C4neg equal 1.5447783047545e-10
variable C5neg equal ${d5}
variable C5neg equal -3.80242311353443e-10
variable C6neg equal ${d6}
variable C6neg equal -7.36205395716851e-10

# Reset box and simulation parameters

clear
box tilt large

The 'box' command has been removed and will be ignored

read_restart restart.equil
Reading restart file ...
  restart file = 2 Aug 2023, LAMMPS = 2 Aug 2023
  restoring atom style atomic from restart
  triclinic box = (4.1383628e-15 6.1949063e-15 8.3344861e-15) to (8.1800003 12.27 16.360001) with tilt (0 0 0)
  1 by 1 by 1 MPI processor grid
  pair style eam/alloy stores no restart info
  96 atoms
  read_restart CPU = 0.000 seconds
include potential.mod
# NOTE: This script can be modified for different pair styles
# See in.elastic for more info.

#Provide potential
pair_style      eam/alloy ### TYPE OF POTENTIAL (eam (OR) eam/alloy)
pair_coeff      *  *  CuAg.eam.alloy Ag ### POTENTIAL FILENAME

# Setup neighbor style
neighbor 1.0 nsq
neigh_modify once no every 1 delay 0 check yes

# Setup minimization style
min_style	     cg
min_modify	     dmax ${dmax} line quadratic
min_modify	     dmax 0.01 line quadratic

# Setup output
thermo		10
thermo_style custom step temp pe press pxx pyy pzz pxy pxz pyz lx ly lz vol fnorm
thermo_modify norm no

# Positive deformation

variable delta equal ${up}*${len0}
variable delta equal 1e-06*${len0}
variable delta equal 1e-06*16.3600005818174
variable deltaxy equal ${up}*xy
variable deltaxy equal 1e-06*xy
variable deltaxz equal ${up}*xz
variable deltaxz equal 1e-06*xz
variable deltayz equal ${up}*yz
variable deltayz equal 1e-06*yz
if "${dir} == 1" then    "change_box all x delta 0 ${delta} xy delta ${deltaxy} xz delta ${deltaxz} remap units box"
if "${dir} == 2" then    "change_box all y delta 0 ${delta} yz delta ${deltayz} remap units box"
if "${dir} == 3" then    "change_box all z delta 0 ${delta} remap units box"
change_box all z delta 0 ${delta} remap units box
change_box all z delta 0 1.63600005818174e-05 remap units box
Changing box ...
  triclinic box = (4.1383628e-15 6.1949063e-15 8.3344861e-15) to (8.1800003 12.27 16.360017) with tilt (0 0 0)
if "${dir} == 4" then    "change_box all yz delta ${delta} remap units box"
if "${dir} == 5" then    "change_box all xz delta ${delta} remap units box"
if "${dir} == 6" then    "change_box all xy delta ${delta} remap units box"

# Relax atoms positions

minimize ${etol} ${ftol} ${maxiter} ${maxeval}
minimize 0 ${ftol} ${maxiter} ${maxeval}
minimize 0 1e-10 ${maxiter} ${maxeval}
minimize 0 1e-10 10000 ${maxeval}
minimize 0 1e-10 10000 50000
Neighbor list info ...
  update: every = 1 steps, delay = 0 steps, check = yes
  max neighbors/atom: 2000, page size: 100000
  master list distance cutoff = 6.995011
  ghost atom cutoff = 6.995011
  1 neighbor lists, perpetual/occasional/extra = 1 0 0
  (1) pair eam/alloy, perpetual
      attributes: half, newton on
      pair build: half/nsq/newton
      stencil: none
      bin: none
Per MPI rank memory allocation (min/avg/max) = 4.448 | 4.448 | 4.448 Mbytes
   Step          Temp          PotEng         Press           Pxx            Pyy            Pzz            Pxy            Pxz            Pyz             Lx             Ly             Lz           Volume         Fnorm     
         1   0             -273.6         -1.0398493     -0.93863191    -0.93862995    -1.2422861     -6.1768774e-07 -2.2114949e-06  4.9988403e-06  8.1800003      12.27          16.360017      1642.0321      0.00059602231
        10   0             -273.6         -1.0399428     -0.93872436    -0.93872436    -1.2423797      2.312751e-12   7.6213904e-12 -3.264207e-11   8.1800003      12.27          16.360017      1642.0321      1.4392492e-06
        20   0             -273.6         -1.0399428     -0.93872436    -0.93872436    -1.2423797      3.6750969e-13 -2.306557e-12  -8.4071792e-12  8.1800003      12.27          16.360017      1642.0321      4.6997821e-09
        25   0             -273.6         -1.0399428     -0.93872436    -0.93872436    -1.2423797     -5.6252045e-12 -3.7841917e-12  1.5394073e-11  8.1800003      12.27          16.360017      1642.0321      7.8400184e-11
Loop time of 0.00785301 on 1 procs for 24 steps with 96 atoms

100.0% CPU use with 1 MPI tasks x no OpenMP threads

Minimization stats:
  Stopping criterion = force tolerance
  Energy initial, next-to-last, final = 
     -273.599997547106  -273.599997572581  -273.599997572581
  Force two-norm initial, final = 0.00059602231 7.8400184e-11
  Force max component initial, final = 9.6779961e-05 1.4827172e-11
  Final line search alpha, max atom move = 1 1.4827172e-11
  Iterations, force evaluations = 24 48

MPI task timing breakdown:
Section |  min time  |  avg time  |  max time  |%varavg| %total
---------------------------------------------------------------
Pair    | 0.0075315  | 0.0075315  | 0.0075315  |   0.0 | 95.91
Neigh   | 0          | 0          | 0          |   0.0 |  0.00
Comm    | 0.00017954 | 0.00017954 | 0.00017954 |   0.0 |  2.29
Output  | 2.3396e-05 | 2.3396e-05 | 2.3396e-05 |   0.0 |  0.30
Modify  | 0          | 0          | 0          |   0.0 |  0.00
Other   |            | 0.0001186  |            |       |  1.51

Nlocal:             96 ave          96 max          96 min
Histogram: 1 0 0 0 0 0 0 0 0 0
Nghost:            976 ave         976 max         976 min
Histogram: 1 0 0 0 0 0 0 0 0 0
Neighs:           3744 ave        3744 max        3744 min
Histogram: 1 0 0 0 0 0 0 0 0 0

Total # of neighbors = 3744
Ave neighs/atom = 39
Neighbor list builds = 0
Dangerous builds = 0

# Obtain new stress tensor

variable tmp equal pe
variable e1 equal ${tmp}
variable e1 equal -273.599997572581
variable tmp equal press
variable p1 equal ${tmp}
variable p1 equal -1.0399428051907
variable tmp equal pxx
variable pxx1 equal ${tmp}
variable pxx1 equal -0.9387243579686
variable tmp equal pyy
variable pyy1 equal ${tmp}
variable pyy1 equal -0.938724357940436
variable tmp equal pzz
variable pzz1 equal ${tmp}
variable pzz1 equal -1.24237969966307
variable tmp equal pxy
variable pxy1 equal ${tmp}
variable pxy1 equal -5.62520449915602e-12
variable tmp equal pxz
variable pxz1 equal ${tmp}
variable pxz1 equal -3.78419170644022e-12
variable tmp equal pyz
variable pyz1 equal ${tmp}
variable pyz1 equal 1.53940726544105e-11

# Compute elastic constant from pressure tensor

variable C1pos equal ${d1}
variable C1pos equal 93.8724357491346
variable C2pos equal ${d2}
variable C2pos equal 93.8724357514153
variable C3pos equal ${d3}
variable C3pos equal 124.237969920696
variable C4pos equal ${d4}
variable C4pos equal -1.85694272843576e-09
variable C5pos equal ${d5}
variable C5pos equal 4.43077244665332e-10
variable C6pos equal ${d6}
variable C6pos equal 8.58390380253954e-10

# Combine positive and negative

variable C1${dir} equal 0.5*(${C1neg}+${C1pos})
variable C13 equal 0.5*(${C1neg}+${C1pos})
variable C13 equal 0.5*(93.8730274065684+${C1pos})
variable C13 equal 0.5*(93.8730274065684+93.8724357491346)
variable C2${dir} equal 0.5*(${C2neg}+${C2pos})
variable C23 equal 0.5*(${C2neg}+${C2pos})
variable C23 equal 0.5*(93.8730274058742+${C2pos})
variable C23 equal 0.5*(93.8730274058742+93.8724357514153)
variable C3${dir} equal 0.5*(${C3neg}+${C3pos})
variable C33 equal 0.5*(${C3neg}+${C3pos})
variable C33 equal 0.5*(124.238459425231+${C3pos})
variable C33 equal 0.5*(124.238459425231+124.237969920696)
variable C4${dir} equal 0.5*(${C4neg}+${C4pos})
variable C43 equal 0.5*(${C4neg}+${C4pos})
variable C43 equal 0.5*(1.5447783047545e-10+${C4pos})
variable C43 equal 0.5*(1.5447783047545e-10+-1.85694272843576e-09)
variable C5${dir} equal 0.5*(${C5neg}+${C5pos})
variable C53 equal 0.5*(${C5neg}+${C5pos})
variable C53 equal 0.5*(-3.80242311353443e-10+${C5pos})
variable C53 equal 0.5*(-3.80242311353443e-10+4.43077244665332e-10)
variable C6${dir} equal 0.5*(${C6neg}+${C6pos})
variable C63 equal 0.5*(${C6neg}+${C6pos})
variable C63 equal 0.5*(-7.36205395716851e-10+${C6pos})
variable C63 equal 0.5*(-7.36205395716851e-10+8.58390380253954e-10)

# Delete dir to make sure it is not reused

variable dir delete

# uyz Perturbation

variable dir equal 4
include displace.mod
# NOTE: This script should not need to be
# modified. See in.elastic for more info.
#
# Find which reference length to use

if "${dir} == 1" then    "variable len0 equal ${lx0}"
if "${dir} == 2" then    "variable len0 equal ${ly0}"
if "${dir} == 3" then    "variable len0 equal ${lz0}"
if "${dir} == 4" then    "variable len0 equal ${lz0}"
variable len0 equal ${lz0}
variable len0 equal 16.3600005818174
if "${dir} == 5" then    "variable len0 equal ${lz0}"
if "${dir} == 6" then    "variable len0 equal ${ly0}"

# Reset box and simulation parameters

clear
box tilt large

The 'box' command has been removed and will be ignored

read_restart restart.equil
Reading restart file ...
  restart file = 2 Aug 2023, LAMMPS = 2 Aug 2023
  restoring atom style atomic from restart
  triclinic box = (4.1383628e-15 6.1949063e-15 8.3344861e-15) to (8.1800003 12.27 16.360001) with tilt (0 0 0)
  1 by 1 by 1 MPI processor grid
  pair style eam/alloy stores no restart info
  96 atoms
  read_restart CPU = 0.000 seconds
include potential.mod
# NOTE: This script can be modified for different pair styles
# See in.elastic for more info.

#Provide potential
pair_style      eam/alloy ### TYPE OF POTENTIAL (eam (OR) eam/alloy)
pair_coeff      *  *  CuAg.eam.alloy Ag ### POTENTIAL FILENAME

# Setup neighbor style
neighbor 1.0 nsq
neigh_modify once no every 1 delay 0 check yes

# Setup minimization style
min_style	     cg
min_modify	     dmax ${dmax} line quadratic
min_modify	     dmax 0.01 line quadratic

# Setup output
thermo		10
thermo_style custom step temp pe press pxx pyy pzz pxy pxz pyz lx ly lz vol fnorm
thermo_modify norm no

# Negative deformation

variable delta equal -${up}*${len0}
variable delta equal -1e-06*${len0}
variable delta equal -1e-06*16.3600005818174
variable deltaxy equal -${up}*xy
variable deltaxy equal -1e-06*xy
variable deltaxz equal -${up}*xz
variable deltaxz equal -1e-06*xz
variable deltayz equal -${up}*yz
variable deltayz equal -1e-06*yz
if "${dir} == 1" then    "change_box all x delta 0 ${delta} xy delta ${deltaxy} xz delta ${deltaxz} remap units box"
if "${dir} == 2" then    "change_box all y delta 0 ${delta} yz delta ${deltayz} remap units box"
if "${dir} == 3" then    "change_box all z delta 0 ${delta} remap units box"
if "${dir} == 4" then    "change_box all yz delta ${delta} remap units box"
change_box all yz delta ${delta} remap units box
change_box all yz delta -1.63600005818174e-05 remap units box
Changing box ...
  triclinic box = (4.1383628e-15 6.1949063e-15 8.3344861e-15) to (8.1800003 12.27 16.360001) with tilt (0 0 -1.6360001e-05)
if "${dir} == 5" then    "change_box all xz delta ${delta} remap units box"
if "${dir} == 6" then    "change_box all xy delta ${delta} remap units box"

# Relax atoms positions

minimize ${etol} ${ftol} ${maxiter} ${maxeval}
minimize 0 ${ftol} ${maxiter} ${maxeval}
minimize 0 1e-10 ${maxiter} ${maxeval}
minimize 0 1e-10 10000 ${maxeval}
minimize 0 1e-10 10000 50000
Neighbor list info ...
  update: every = 1 steps, delay = 0 steps, check = yes
  max neighbors/atom: 2000, page size: 100000
  master list distance cutoff = 6.995011
  ghost atom cutoff = 6.995011
  1 neighbor lists, perpetual/occasional/extra = 1 0 0
  (1) pair eam/alloy, perpetual
      attributes: half, newton on
      pair build: half/nsq/newton
      stencil: none
      bin: none
Per MPI rank memory allocation (min/avg/max) = 4.448 | 4.448 | 4.448 Mbytes
   Step          Temp          PotEng         Press           Pxx            Pyy            Pzz            Pxy            Pxz            Pyz             Lx             Ly             Lz           Volume         Fnorm     
         1   0             -273.6          9.3974033e-05  9.2240803e-05  9.4876697e-05  9.48046e-05   -6.1771469e-07 -2.2115046e-06  0.46419805     8.1800003      12.27          16.360001      1642.0305      0.00059602498
        10   0             -273.6          5.0189232e-07 -2.0620383e-07  4.6766562e-07  1.2442152e-06  1.4944774e-11  1.8251256e-11  0.46419306     8.1800003      12.27          16.360001      1642.0305      1.4392696e-06
        20   0             -273.6          5.0105638e-07 -2.0734628e-07  4.6698992e-07  1.2435255e-06 -1.1499235e-12 -6.4283114e-12  0.46419306     8.1800003      12.27          16.360001      1642.0305      4.6995068e-09
        25   0             -273.6          5.0101478e-07 -2.0739137e-07  4.6696652e-07  1.2434692e-06 -1.9060591e-11  4.1032674e-12  0.46419306     8.1800003      12.27          16.360001      1642.0305      7.8295307e-11
Loop time of 0.00754776 on 1 procs for 24 steps with 96 atoms

100.0% CPU use with 1 MPI tasks x no OpenMP threads

Minimization stats:
  Stopping criterion = force tolerance
  Energy initial, next-to-last, final = 
     -273.599997547505  -273.599997572981   -273.59999757298
  Force two-norm initial, final = 0.00059602498 7.8295307e-11
  Force max component initial, final = 9.6780242e-05 1.3625615e-11
  Final line search alpha, max atom move = 1 1.3625615e-11
  Iterations, force evaluations = 24 48

MPI task timing breakdown:
Section |  min time  |  avg time  |  max time  |%varavg| %total
---------------------------------------------------------------
Pair    | 0.0072156  | 0.0072156  | 0.0072156  |   0.0 | 95.60
Neigh   | 0          | 0          | 0          |   0.0 |  0.00
Comm    | 0.00019125 | 0.00019125 | 0.00019125 |   0.0 |  2.53
Output  | 2.3907e-05 | 2.3907e-05 | 2.3907e-05 |   0.0 |  0.32
Modify  | 0          | 0          | 0          |   0.0 |  0.00
Other   |            | 0.000117   |            |       |  1.55

Nlocal:             96 ave          96 max          96 min
Histogram: 1 0 0 0 0 0 0 0 0 0
Nghost:            976 ave         976 max         976 min
Histogram: 1 0 0 0 0 0 0 0 0 0
Neighs:           3744 ave        3744 max        3744 min
Histogram: 1 0 0 0 0 0 0 0 0 0

Total # of neighbors = 3744
Ave neighs/atom = 39
Neighbor list builds = 0
Dangerous builds = 0

# Obtain new stress tensor

variable tmp equal pxx
variable pxx1 equal ${tmp}
variable pxx1 equal -2.0739136991812e-07
variable tmp equal pyy
variable pyy1 equal ${tmp}
variable pyy1 equal 4.66966516132171e-07
variable tmp equal pzz
variable pzz1 equal ${tmp}
variable pzz1 equal 1.24346919382798e-06
variable tmp equal pxy
variable pxy1 equal ${tmp}
variable pxy1 equal -1.90605908783763e-11
variable tmp equal pxz
variable pxz1 equal ${tmp}
variable pxz1 equal 4.10326742922692e-12
variable tmp equal pyz
variable pyz1 equal ${tmp}
variable pyz1 equal 0.464193055519042

# Compute elastic constant from pressure tensor

variable C1neg equal ${d1}
variable C1neg equal -2.06914115471335e-05
variable C2neg equal ${d2}
variable C2neg equal 4.67392799028143e-05
variable C3neg equal ${d3}
variable C3neg equal 0.000124392530068375
variable C4neg equal ${d4}
variable C4neg equal 46.4193055522217
variable C5neg equal ${d5}
variable C5neg equal 3.45668668901382e-10
variable C6neg equal ${d6}
variable C6neg equal -2.20192901817598e-09

# Reset box and simulation parameters

clear
box tilt large

The 'box' command has been removed and will be ignored

read_restart restart.equil
Reading restart file ...
  restart file = 2 Aug 2023, LAMMPS = 2 Aug 2023
  restoring atom style atomic from restart
  triclinic box = (4.1383628e-15 6.1949063e-15 8.3344861e-15) to (8.1800003 12.27 16.360001) with tilt (0 0 0)
  1 by 1 by 1 MPI processor grid
  pair style eam/alloy stores no restart info
  96 atoms
  read_restart CPU = 0.000 seconds
include potential.mod
# NOTE: This script can be modified for different pair styles
# See in.elastic for more info.

#Provide potential
pair_style      eam/alloy ### TYPE OF POTENTIAL (eam (OR) eam/alloy)
pair_coeff      *  *  CuAg.eam.alloy Ag ### POTENTIAL FILENAME

# Setup neighbor style
neighbor 1.0 nsq
neigh_modify once no every 1 delay 0 check yes

# Setup minimization style
min_style	     cg
min_modify	     dmax ${dmax} line quadratic
min_modify	     dmax 0.01 line quadratic

# Setup output
thermo		10
thermo_style custom step temp pe press pxx pyy pzz pxy pxz pyz lx ly lz vol fnorm
thermo_modify norm no

# Positive deformation

variable delta equal ${up}*${len0}
variable delta equal 1e-06*${len0}
variable delta equal 1e-06*16.3600005818174
variable deltaxy equal ${up}*xy
variable deltaxy equal 1e-06*xy
variable deltaxz equal ${up}*xz
variable deltaxz equal 1e-06*xz
variable deltayz equal ${up}*yz
variable deltayz equal 1e-06*yz
if "${dir} == 1" then    "change_box all x delta 0 ${delta} xy delta ${deltaxy} xz delta ${deltaxz} remap units box"
if "${dir} == 2" then    "change_box all y delta 0 ${delta} yz delta ${deltayz} remap units box"
if "${dir} == 3" then    "change_box all z delta 0 ${delta} remap units box"
if "${dir} == 4" then    "change_box all yz delta ${delta} remap units box"
change_box all yz delta ${delta} remap units box
change_box all yz delta 1.63600005818174e-05 remap units box
Changing box ...
  triclinic box = (4.1383628e-15 6.1949063e-15 8.3344861e-15) to (8.1800003 12.27 16.360001) with tilt (0 0 1.6360001e-05)
if "${dir} == 5" then    "change_box all xz delta ${delta} remap units box"
if "${dir} == 6" then    "change_box all xy delta ${delta} remap units box"

# Relax atoms positions

minimize ${etol} ${ftol} ${maxiter} ${maxeval}
minimize 0 ${ftol} ${maxiter} ${maxeval}
minimize 0 1e-10 ${maxiter} ${maxeval}
minimize 0 1e-10 10000 ${maxeval}
minimize 0 1e-10 10000 50000
Neighbor list info ...
  update: every = 1 steps, delay = 0 steps, check = yes
  max neighbors/atom: 2000, page size: 100000
  master list distance cutoff = 6.995011
  ghost atom cutoff = 6.995011
  1 neighbor lists, perpetual/occasional/extra = 1 0 0
  (1) pair eam/alloy, perpetual
      attributes: half, newton on
      pair build: half/nsq/newton
      stencil: none
      bin: none
Per MPI rank memory allocation (min/avg/max) = 4.448 | 4.448 | 4.448 Mbytes
   Step          Temp          PotEng         Press           Pxx            Pyy            Pzz            Pxy            Pxz            Pyz             Lx             Ly             Lz           Volume         Fnorm     
         1   0             -273.6          9.3973979e-05  9.2240762e-05  9.4876618e-05  9.4804556e-05 -6.176843e-07  -2.2114828e-06 -0.46418806     8.1800003      12.27          16.360001      1642.0305      0.00059602477
        10   0             -273.6          5.0189398e-07 -2.0622551e-07  4.6770054e-07  1.2442069e-06  9.078366e-12  -7.5447738e-12 -0.46419306     8.1800003      12.27          16.360001      1642.0305      1.4392707e-06
        20   0             -273.6          5.0106768e-07 -2.0735045e-07  4.6701101e-07  1.2435425e-06  6.9441841e-12  1.1113264e-11 -0.46419306     8.1800003      12.27          16.360001      1642.0305      4.6995162e-09
        25   0             -273.6          5.0100341e-07 -2.0741006e-07  4.6694819e-07  1.2434721e-06  1.7828787e-11 -2.1977013e-13 -0.46419306     8.1800003      12.27          16.360001      1642.0305      7.8313995e-11
Loop time of 0.0076233 on 1 procs for 24 steps with 96 atoms

100.0% CPU use with 1 MPI tasks x no OpenMP threads

Minimization stats:
  Stopping criterion = force tolerance
  Energy initial, next-to-last, final = 
     -273.599997547505   -273.59999757298   -273.59999757298
  Force two-norm initial, final = 0.00059602477 7.8313995e-11
  Force max component initial, final = 9.6780264e-05 1.3734354e-11
  Final line search alpha, max atom move = 1 1.3734354e-11
  Iterations, force evaluations = 24 48

MPI task timing breakdown:
Section |  min time  |  avg time  |  max time  |%varavg| %total
---------------------------------------------------------------
Pair    | 0.0073036  | 0.0073036  | 0.0073036  |   0.0 | 95.81
Neigh   | 0          | 0          | 0          |   0.0 |  0.00
Comm    | 0.0001776  | 0.0001776  | 0.0001776  |   0.0 |  2.33
Output  | 2.3854e-05 | 2.3854e-05 | 2.3854e-05 |   0.0 |  0.31
Modify  | 0          | 0          | 0          |   0.0 |  0.00
Other   |            | 0.0001182  |            |       |  1.55

Nlocal:             96 ave          96 max          96 min
Histogram: 1 0 0 0 0 0 0 0 0 0
Nghost:            976 ave         976 max         976 min
Histogram: 1 0 0 0 0 0 0 0 0 0
Neighs:           3744 ave        3744 max        3744 min
Histogram: 1 0 0 0 0 0 0 0 0 0

Total # of neighbors = 3744
Ave neighs/atom = 39
Neighbor list builds = 0
Dangerous builds = 0

# Obtain new stress tensor

variable tmp equal pe
variable e1 equal ${tmp}
variable e1 equal -273.59999757298
variable tmp equal press
variable p1 equal ${tmp}
variable p1 equal 5.01003411180993e-07
variable tmp equal pxx
variable pxx1 equal ${tmp}
variable pxx1 equal -2.0741006363367e-07
variable tmp equal pyy
variable pyy1 equal ${tmp}
variable pyy1 equal 4.66948194158231e-07
variable tmp equal pzz
variable pzz1 equal ${tmp}
variable pzz1 equal 1.24347210301842e-06
variable tmp equal pxy
variable pxy1 equal ${tmp}
variable pxy1 equal 1.78287868634808e-11
variable tmp equal pxz
variable pxz1 equal ${tmp}
variable pxz1 equal -2.19770127152263e-13
variable tmp equal pyz
variable pyz1 equal ${tmp}
variable pyz1 equal -0.464193055527192

# Compute elastic constant from pressure tensor

variable C1pos equal ${d1}
variable C1pos equal 2.06932809186885e-05
variable C2pos equal ${d2}
variable C2pos equal -4.67374477054203e-05
variable C3pos equal ${d3}
variable C3pos equal -0.000124392820987419
variable C4pos equal ${d4}
variable C4pos equal 46.4193055524017
variable C5pos equal ${d5}
variable C5pos equal 8.66350867365366e-11
variable C6pos equal ${d6}
variable C6pos equal -1.48700875600973e-09

# Combine positive and negative

variable C1${dir} equal 0.5*(${C1neg}+${C1pos})
variable C14 equal 0.5*(${C1neg}+${C1pos})
variable C14 equal 0.5*(-2.06914115471335e-05+${C1pos})
variable C14 equal 0.5*(-2.06914115471335e-05+2.06932809186885e-05)
variable C2${dir} equal 0.5*(${C2neg}+${C2pos})
variable C24 equal 0.5*(${C2neg}+${C2pos})
variable C24 equal 0.5*(4.67392799028143e-05+${C2pos})
variable C24 equal 0.5*(4.67392799028143e-05+-4.67374477054203e-05)
variable C3${dir} equal 0.5*(${C3neg}+${C3pos})
variable C34 equal 0.5*(${C3neg}+${C3pos})
variable C34 equal 0.5*(0.000124392530068375+${C3pos})
variable C34 equal 0.5*(0.000124392530068375+-0.000124392820987419)
variable C4${dir} equal 0.5*(${C4neg}+${C4pos})
variable C44 equal 0.5*(${C4neg}+${C4pos})
variable C44 equal 0.5*(46.4193055522217+${C4pos})
variable C44 equal 0.5*(46.4193055522217+46.4193055524017)
variable C5${dir} equal 0.5*(${C5neg}+${C5pos})
variable C54 equal 0.5*(${C5neg}+${C5pos})
variable C54 equal 0.5*(3.45668668901382e-10+${C5pos})
variable C54 equal 0.5*(3.45668668901382e-10+8.66350867365366e-11)
variable C6${dir} equal 0.5*(${C6neg}+${C6pos})
variable C64 equal 0.5*(${C6neg}+${C6pos})
variable C64 equal 0.5*(-2.20192901817598e-09+${C6pos})
variable C64 equal 0.5*(-2.20192901817598e-09+-1.48700875600973e-09)

# Delete dir to make sure it is not reused

variable dir delete

# uxz Perturbation

variable dir equal 5
include displace.mod
# NOTE: This script should not need to be
# modified. See in.elastic for more info.
#
# Find which reference length to use

if "${dir} == 1" then    "variable len0 equal ${lx0}"
if "${dir} == 2" then    "variable len0 equal ${ly0}"
if "${dir} == 3" then    "variable len0 equal ${lz0}"
if "${dir} == 4" then    "variable len0 equal ${lz0}"
if "${dir} == 5" then    "variable len0 equal ${lz0}"
variable len0 equal ${lz0}
variable len0 equal 16.3600005818174
if "${dir} == 6" then    "variable len0 equal ${ly0}"

# Reset box and simulation parameters

clear
box tilt large

The 'box' command has been removed and will be ignored

read_restart restart.equil
Reading restart file ...
  restart file = 2 Aug 2023, LAMMPS = 2 Aug 2023
  restoring atom style atomic from restart
  triclinic box = (4.1383628e-15 6.1949063e-15 8.3344861e-15) to (8.1800003 12.27 16.360001) with tilt (0 0 0)
  1 by 1 by 1 MPI processor grid
  pair style eam/alloy stores no restart info
  96 atoms
  read_restart CPU = 0.000 seconds
include potential.mod
# NOTE: This script can be modified for different pair styles
# See in.elastic for more info.

#Provide potential
pair_style      eam/alloy ### TYPE OF POTENTIAL (eam (OR) eam/alloy)
pair_coeff      *  *  CuAg.eam.alloy Ag ### POTENTIAL FILENAME

# Setup neighbor style
neighbor 1.0 nsq
neigh_modify once no every 1 delay 0 check yes

# Setup minimization style
min_style	     cg
min_modify	     dmax ${dmax} line quadratic
min_modify	     dmax 0.01 line quadratic

# Setup output
thermo		10
thermo_style custom step temp pe press pxx pyy pzz pxy pxz pyz lx ly lz vol fnorm
thermo_modify norm no

# Negative deformation

variable delta equal -${up}*${len0}
variable delta equal -1e-06*${len0}
variable delta equal -1e-06*16.3600005818174
variable deltaxy equal -${up}*xy
variable deltaxy equal -1e-06*xy
variable deltaxz equal -${up}*xz
variable deltaxz equal -1e-06*xz
variable deltayz equal -${up}*yz
variable deltayz equal -1e-06*yz
if "${dir} == 1" then    "change_box all x delta 0 ${delta} xy delta ${deltaxy} xz delta ${deltaxz} remap units box"
if "${dir} == 2" then    "change_box all y delta 0 ${delta} yz delta ${deltayz} remap units box"
if "${dir} == 3" then    "change_box all z delta 0 ${delta} remap units box"
if "${dir} == 4" then    "change_box all yz delta ${delta} remap units box"
if "${dir} == 5" then    "change_box all xz delta ${delta} remap units box"
change_box all xz delta ${delta} remap units box
change_box all xz delta -1.63600005818174e-05 remap units box
Changing box ...
  triclinic box = (4.1383628e-15 6.1949063e-15 8.3344861e-15) to (8.1800003 12.27 16.360001) with tilt (0 -1.6360001e-05 0)
if "${dir} == 6" then    "change_box all xy delta ${delta} remap units box"

# Relax atoms positions

minimize ${etol} ${ftol} ${maxiter} ${maxeval}
minimize 0 ${ftol} ${maxiter} ${maxeval}
minimize 0 1e-10 ${maxiter} ${maxeval}
minimize 0 1e-10 10000 ${maxeval}
minimize 0 1e-10 10000 50000
Neighbor list info ...
  update: every = 1 steps, delay = 0 steps, check = yes
  max neighbors/atom: 2000, page size: 100000
  master list distance cutoff = 6.995011
  ghost atom cutoff = 6.995011
  1 neighbor lists, perpetual/occasional/extra = 1 0 0
  (1) pair eam/alloy, perpetual
      attributes: half, newton on
      pair build: half/nsq/newton
      stencil: none
      bin: none
Per MPI rank memory allocation (min/avg/max) = 4.448 | 4.448 | 4.448 Mbytes
   Step          Temp          PotEng         Press           Pxx            Pyy            Pzz            Pxy            Pxz            Pyz             Lx             Ly             Lz           Volume         Fnorm     
         1   0             -273.6          9.3974004e-05  9.2915085e-05  9.4202334e-05  9.4804592e-05 -6.1770622e-07  0.46419084     4.9988332e-06  8.1800003      12.27          16.360001      1642.0305      0.00059602487
        10   0             -273.6          5.0192205e-07  4.6811779e-07 -2.0658542e-07  1.2442338e-06  1.8131977e-11  0.46419306    -3.5101665e-11  8.1800003      12.27          16.360001      1642.0305      1.4392736e-06
        20   0             -273.6          5.0106144e-07  4.6696061e-07 -2.0731193e-07  1.2435356e-06  7.9447339e-13  0.46419306     7.5791773e-12  8.1800003      12.27          16.360001      1642.0305      4.6995309e-09
        25   0             -273.6          5.010143e-07   4.6694032e-07 -2.0737782e-07  1.2434804e-06  5.0571246e-12  0.46419306    -9.3669242e-12  8.1800003      12.27          16.360001      1642.0305      7.8296302e-11
Loop time of 0.00753742 on 1 procs for 24 steps with 96 atoms

100.0% CPU use with 1 MPI tasks x no OpenMP threads

Minimization stats:
  Stopping criterion = force tolerance
  Energy initial, next-to-last, final = 
     -273.599997547505   -273.59999757298   -273.59999757298
  Force two-norm initial, final = 0.00059602487 7.8296302e-11
  Force max component initial, final = 9.6780301e-05 1.372355e-11
  Final line search alpha, max atom move = 1 1.372355e-11
  Iterations, force evaluations = 24 48

MPI task timing breakdown:
Section |  min time  |  avg time  |  max time  |%varavg| %total
---------------------------------------------------------------
Pair    | 0.0072181  | 0.0072181  | 0.0072181  |   0.0 | 95.76
Neigh   | 0          | 0          | 0          |   0.0 |  0.00
Comm    | 0.0001772  | 0.0001772  | 0.0001772  |   0.0 |  2.35
Output  | 2.368e-05  | 2.368e-05  | 2.368e-05  |   0.0 |  0.31
Modify  | 0          | 0          | 0          |   0.0 |  0.00
Other   |            | 0.0001184  |            |       |  1.57

Nlocal:             96 ave          96 max          96 min
Histogram: 1 0 0 0 0 0 0 0 0 0
Nghost:            976 ave         976 max         976 min
Histogram: 1 0 0 0 0 0 0 0 0 0
Neighs:           3744 ave        3744 max        3744 min
Histogram: 1 0 0 0 0 0 0 0 0 0

Total # of neighbors = 3744
Ave neighs/atom = 39
Neighbor list builds = 0
Dangerous builds = 0

# Obtain new stress tensor

variable tmp equal pxx
variable pxx1 equal ${tmp}
variable pxx1 equal 4.66940320725939e-07
variable tmp equal pyy
variable pyy1 equal ${tmp}
variable pyy1 equal -2.07377819016069e-07
variable tmp equal pzz
variable pzz1 equal ${tmp}
variable pzz1 equal 1.24348040913693e-06
variable tmp equal pxy
variable pxy1 equal ${tmp}
variable pxy1 equal 5.05712462453324e-12
variable tmp equal pxz
variable pxz1 equal ${tmp}
variable pxz1 equal 0.464193055530597
variable tmp equal pyz
variable pyz1 equal ${tmp}
variable pyz1 equal -9.36692423685869e-12

# Compute elastic constant from pressure tensor

variable C1neg equal ${d1}
variable C1neg equal 4.67417575172724e-05
variable C2neg equal ${d2}
variable C2neg equal -2.06951536120097e-05
variable C3neg equal ${d3}
variable C3neg equal 0.00012439365159927
variable C4neg equal ${d4}
variable C4neg equal -6.19156960691162e-10
variable C5neg equal ${d5}
variable C5neg equal 46.419305552995
variable C6neg equal ${d6}
variable C6neg equal 2.09842532114972e-10

# Reset box and simulation parameters

clear
box tilt large

The 'box' command has been removed and will be ignored

read_restart restart.equil
Reading restart file ...
  restart file = 2 Aug 2023, LAMMPS = 2 Aug 2023
  restoring atom style atomic from restart
  triclinic box = (4.1383628e-15 6.1949063e-15 8.3344861e-15) to (8.1800003 12.27 16.360001) with tilt (0 0 0)
  1 by 1 by 1 MPI processor grid
  pair style eam/alloy stores no restart info
  96 atoms
  read_restart CPU = 0.000 seconds
include potential.mod
# NOTE: This script can be modified for different pair styles
# See in.elastic for more info.

#Provide potential
pair_style      eam/alloy ### TYPE OF POTENTIAL (eam (OR) eam/alloy)
pair_coeff      *  *  CuAg.eam.alloy Ag ### POTENTIAL FILENAME

# Setup neighbor style
neighbor 1.0 nsq
neigh_modify once no every 1 delay 0 check yes

# Setup minimization style
min_style	     cg
min_modify	     dmax ${dmax} line quadratic
min_modify	     dmax 0.01 line quadratic

# Setup output
thermo		10
thermo_style custom step temp pe press pxx pyy pzz pxy pxz pyz lx ly lz vol fnorm
thermo_modify norm no

# Positive deformation

variable delta equal ${up}*${len0}
variable delta equal 1e-06*${len0}
variable delta equal 1e-06*16.3600005818174
variable deltaxy equal ${up}*xy
variable deltaxy equal 1e-06*xy
variable deltaxz equal ${up}*xz
variable deltaxz equal 1e-06*xz
variable deltayz equal ${up}*yz
variable deltayz equal 1e-06*yz
if "${dir} == 1" then    "change_box all x delta 0 ${delta} xy delta ${deltaxy} xz delta ${deltaxz} remap units box"
[...]

# Relax atoms positions

minimize ${etol} ${ftol} ${maxiter} ${maxeval}
minimize 0 ${ftol} ${maxiter} ${maxeval}
minimize 0 1e-10 ${maxiter} ${maxeval}
minimize 0 1e-10 10000 ${maxeval}
minimize 0 1e-10 10000 50000
Neighbor list info ...
  update: every = 1 steps, delay = 0 steps, check = yes
  max neighbors/atom: 2000, page size: 100000
  master list distance cutoff = 6.995011
  ghost atom cutoff = 6.995011
  1 neighbor lists, perpetual/occasional/extra = 1 0 0
  (1) pair eam/alloy, perpetual
      attributes: half, newton on
      pair build: half/nsq/newton
      stencil: none
      bin: none
Per MPI rank memory allocation (min/avg/max) = 4.448 | 4.448 | 4.448 Mbytes
   Step          Temp          PotEng         Press           Pxx            Pyy            Pzz            Pxy            Pxz            Pyz             Lx             Ly             Lz           Volume         Fnorm     
         1   0             -273.6          9.3974023e-05  9.2915123e-05  9.5653228e-05  9.3353716e-05  0.46419244    -2.2114861e-06  4.9988287e-06  8.1800003      12.27          16.360001      1642.0305      0.00059602488
        10   0             -273.6          5.0190033e-07  4.6810305e-07  1.2442671e-06 -2.0666912e-07  0.46419306     7.1821915e-12 -2.1388573e-11  8.1800003      12.27          16.360001      1642.0305      1.439273e-06 
        20   0             -273.6          5.0104244e-07  4.6694619e-07  1.2435338e-06 -2.0735266e-07  0.46419306    -9.8055901e-12 -6.0909102e-13  8.1800003      12.27          16.360001      1642.0305      4.6995708e-09
        25   0             -273.6          5.010257e-07   4.6695124e-07  1.2435081e-06 -2.0738224e-07  0.46419306    -2.0573982e-12  3.6203309e-12  8.1800003      12.27          16.360001      1642.0305      7.8290424e-11
Loop time of 0.00752508 on 1 procs for 24 steps with 96 atoms

100.0% CPU use with 1 MPI tasks x no OpenMP threads

Minimization stats:
  Stopping criterion = force tolerance
  Energy initial, next-to-last, final = 
     -273.599997547505  -273.599997572979   -273.59999757298
  Force two-norm initial, final = 0.00059602488 7.8290424e-11
  Force max component initial, final = 9.6780253e-05 1.3756669e-11
  Final line search alpha, max atom move = 1 1.3756669e-11
  Iterations, force evaluations = 24 48

MPI task timing breakdown:
Section |  min time  |  avg time  |  max time  |%varavg| %total
---------------------------------------------------------------
Pair    | 0.0072077  | 0.0072077  | 0.0072077  |   0.0 | 95.78
Neigh   | 0          | 0          | 0          |   0.0 |  0.00
Comm    | 0.00017616 | 0.00017616 | 0.00017616 |   0.0 |  2.34
Output  | 2.4638e-05 | 2.4638e-05 | 2.4638e-05 |   0.0 |  0.33
Modify  | 0          | 0          | 0          |   0.0 |  0.00
Other   |            | 0.0001166  |            |       |  1.55

Nlocal:             96 ave          96 max          96 min
Histogram: 1 0 0 0 0 0 0 0 0 0
Nghost:            976 ave         976 max         976 min
Histogram: 1 0 0 0 0 0 0 0 0 0
Neighs:           3744 ave        3744 max        3744 min
Histogram: 1 0 0 0 0 0 0 0 0 0

Total # of neighbors = 3744
Ave neighs/atom = 39
Neighbor list builds = 0
Dangerous builds = 0

# Obtain new stress tensor

variable tmp equal pxx
variable pxx1 equal ${tmp}
variable pxx1 equal 4.66951240662184e-07
variable tmp equal pyy
variable pyy1 equal ${tmp}
variable pyy1 equal 1.24350811203279e-06
variable tmp equal pzz
variable pzz1 equal ${tmp}
variable pzz1 equal -2.07382242476962e-07
variable tmp equal pxy
variable pxy1 equal ${tmp}
variable pxy1 equal 0.464193055513436
variable tmp equal pxz
variable pxz1 equal ${tmp}
variable pxz1 equal -2.05739821025246e-12
variable tmp equal pyz
variable pyz1 equal ${tmp}
variable pyz1 equal 3.62033087057857e-12

# Compute elastic constant from pressure tensor

variable C1neg equal ${d1}
variable C1neg equal 4.67428495108969e-05
variable C2neg equal ${d2}
variable C2neg equal 0.000124393439492876
variable C3neg equal ${d3}
variable C3neg equal -2.06926135621193e-05
variable C4neg equal ${d4}
variable C4neg equal 6.79568550052564e-10
variable C5neg equal ${d5}
variable C5neg equal -2.70397895046556e-10
variable C6neg equal ${d6}
variable C6neg equal 46.4193055510477

# Reset box and simulation parameters

clear
box tilt large

The 'box' command has been removed and will be ignored

read_restart restart.equil
Reading restart file ...
  restart file = 2 Aug 2023, LAMMPS = 2 Aug 2023
  restoring atom style atomic from restart
  triclinic box = (4.1383628e-15 6.1949063e-15 8.3344861e-15) to (8.1800003 12.27 16.360001) with tilt (0 0 0)
  1 by 1 by 1 MPI processor grid
  pair style eam/alloy stores no restart info
  96 atoms
  read_restart CPU = 0.000 seconds
include potential.mod
# NOTE: This script can be modified for different pair styles
# See in.elastic for more info.

#Provide potential
pair_style      eam/alloy ### TYPE OF POTENTIAL (eam (OR) eam/alloy)
pair_coeff      *  *  CuAg.eam.alloy Ag ### POTENTIAL FILENAME

# Setup neighbor style
neighbor 1.0 nsq
neigh_modify once no every 1 delay 0 check yes

# Setup minimization style
min_style	     cg
min_modify	     dmax ${dmax} line quadratic
min_modify	     dmax 0.01 line quadratic

# Setup output
thermo		10
thermo_style custom step temp pe press pxx pyy pzz pxy pxz pyz lx ly lz vol fnorm
thermo_modify norm no

# Positive deformation

variable delta equal ${up}*${len0}
variable delta equal 1e-06*${len0}
variable delta equal 1e-06*12.270000436363
variable deltaxy equal ${up}*xy
variable deltaxy equal 1e-06*xy
variable deltaxz equal ${up}*xz
variable deltaxz equal 1e-06*xz
variable deltayz equal ${up}*yz
variable deltayz equal 1e-06*yz
if "${dir} == 1" then    "change_box all x delta 0 ${delta} xy delta ${deltaxy} xz delta ${deltaxz} remap units box"
if "${dir} == 2" then    "change_box all y delta 0 ${delta} yz delta ${deltayz} remap units box"
if "${dir} == 3" then    "change_box all z delta 0 ${delta} remap units box"
if "${dir} == 4" then    "change_box all yz delta ${delta} remap units box"
if "${dir} == 5" then    "change_box all xz delta ${delta} remap units box"
if "${dir} == 6" then    "change_box all xy delta ${delta} remap units box"
change_box all xy delta ${delta} remap units box
change_box all xy delta 1.2270000436363e-05 remap units box
Changing box ...
  triclinic box = (4.1383628e-15 6.1949063e-15 8.3344861e-15) to (8.1800003 12.27 16.360001) with tilt (1.227e-05 0 0)

# Relax atoms positions

minimize ${etol} ${ftol} ${maxiter} ${maxeval}
minimize 0 ${ftol} ${maxiter} ${maxeval}
minimize 0 1e-10 ${maxiter} ${maxeval}
minimize 0 1e-10 10000 ${maxeval}
minimize 0 1e-10 10000 50000
Neighbor list info ...
  update: every = 1 steps, delay = 0 steps, check = yes
  max neighbors/atom: 2000, page size: 100000
  master list distance cutoff = 6.995011
  ghost atom cutoff = 6.995011
  1 neighbor lists, perpetual/occasional/extra = 1 0 0
  (1) pair eam/alloy, perpetual
      attributes: half, newton on
      pair build: half/nsq/newton
      stencil: none
      bin: none
Per MPI rank memory allocation (min/avg/max) = 4.448 | 4.448 | 4.448 Mbytes
   Step          Temp          PotEng         Press           Pxx            Pyy            Pzz            Pxy            Pxz            Pyz             Lx             Ly             Lz           Volume         Fnorm     
         1   0             -273.6          9.3974037e-05  9.2915118e-05  9.5653253e-05  9.3353741e-05 -0.46419367    -2.2114918e-06  4.9988613e-06  8.1800003      12.27          16.360001      1642.0305      0.00059602488
        10   0             -273.6          5.0190229e-07  4.6811552e-07  1.2442471e-06 -2.0665572e-07 -0.46419306     1.4635503e-12 -3.3228825e-11  8.1800003      12.27          16.360001      1642.0305      1.4392673e-06
        20   0             -273.6          5.0103729e-07  4.6695106e-07  1.2435249e-06 -2.0736408e-07 -0.46419306     3.1621132e-12  1.563672e-12   8.1800003      12.27          16.360001      1642.0305      4.6994513e-09
        25   0             -273.6          5.010464e-07   4.6696913e-07  1.2435406e-06 -2.0737048e-07 -0.46419306     4.4142418e-12  6.5230199e-12  8.1800003      12.27          16.360001      1642.0305      7.8302156e-11
Loop time of 0.00751887 on 1 procs for 24 steps with 96 atoms

100.0% CPU use with 1 MPI tasks x no OpenMP threads

Minimization stats:
  Stopping criterion = force tolerance
  Energy initial, next-to-last, final = 
     -273.599997547505   -273.59999757298  -273.599997572979
  Force two-norm initial, final = 0.00059602488 7.8302156e-11
  Force max component initial, final = 9.6780253e-05 1.3589081e-11
  Final line search alpha, max atom move = 1 1.3589081e-11
  Iterations, force evaluations = 24 48

MPI task timing breakdown:
Section |  min time  |  avg time  |  max time  |%varavg| %total
---------------------------------------------------------------
Pair    | 0.0072063  | 0.0072063  | 0.0072063  |   0.0 | 95.84
Neigh   | 0          | 0          | 0          |   0.0 |  0.00
Comm    | 0.00017346 | 0.00017346 | 0.00017346 |   0.0 |  2.31
Output  | 2.3756e-05 | 2.3756e-05 | 2.3756e-05 |   0.0 |  0.32
Modify  | 0          | 0          | 0          |   0.0 |  0.00
Other   |            | 0.0001154  |            |       |  1.53

Nlocal:             96 ave          96 max          96 min
Histogram: 1 0 0 0 0 0 0 0 0 0
Nghost:            976 ave         976 max         976 min
Histogram: 1 0 0 0 0 0 0 0 0 0
Neighs:           3744 ave        3744 max        3744 min
Histogram: 1 0 0 0 0 0 0 0 0 0

Total # of neighbors = 3744
Ave neighs/atom = 39
Neighbor list builds = 0
Dangerous builds = 0

# Obtain new stress tensor

variable tmp equal pe
variable e1 equal ${tmp}
variable e1 equal -273.599997572979
variable tmp equal press
variable p1 equal ${tmp}
variable p1 equal 5.01046402523435e-07
variable tmp equal pxx
variable pxx1 equal ${tmp}
variable pxx1 equal 4.66969126998118e-07
variable tmp equal pyy
variable pyy1 equal ${tmp}
variable pyy1 equal 1.24354055680267e-06
variable tmp equal pzz
variable pzz1 equal ${tmp}
variable pzz1 equal -2.07370476230488e-07
variable tmp equal pxy
variable pxy1 equal ${tmp}
variable pxy1 equal -0.464193055504364
variable tmp equal pxz
variable pxz1 equal ${tmp}
variable pxz1 equal 4.41424182054217e-12
variable tmp equal pyz
variable pyz1 equal ${tmp}
variable pyz1 equal 6.52301989070468e-12

# Compute elastic constant from pressure tensor

variable C1pos equal ${d1}
variable C1pos equal -4.67446381444903e-05
variable C2pos equal ${d2}
variable C2pos equal -0.000124396683969864
variable C3pos equal ${d3}
variable C3pos equal 2.06914369374719e-05
variable C4pos equal ${d4}
variable C4pos equal -9.69837452065175e-10
variable C5pos equal ${d5}
variable C5pos equal -3.76766108032907e-10
variable C6pos equal ${d6}
variable C6pos equal 46.4193055507323

# Combine positive and negative

variable C1${dir} equal 0.5*(${C1neg}+${C1pos})
variable C16 equal 0.5*(${C1neg}+${C1pos})
variable C16 equal 0.5*(4.67428495108969e-05+${C1pos})
variable C16 equal 0.5*(4.67428495108969e-05+-4.67446381444903e-05)
variable C2${dir} equal 0.5*(${C2neg}+${C2pos})
variable C26 equal 0.5*(${C2neg}+${C2pos})
variable C26 equal 0.5*(0.000124393439492876+${C2pos})
variable C26 equal 0.5*(0.000124393439492876+-0.000124396683969864)
variable C3${dir} equal 0.5*(${C3neg}+${C3pos})
variable C36 equal 0.5*(${C3neg}+${C3pos})
variable C36 equal 0.5*(-2.06926135621193e-05+${C3pos})
variable C36 equal 0.5*(-2.06926135621193e-05+2.06914369374719e-05)
variable C4${dir} equal 0.5*(${C4neg}+${C4pos})
variable C46 equal 0.5*(${C4neg}+${C4pos})
variable C46 equal 0.5*(6.79568550052564e-10+${C4pos})
variable C46 equal 0.5*(6.79568550052564e-10+-9.69837452065175e-10)
variable C5${dir} equal 0.5*(${C5neg}+${C5pos})
variable C56 equal 0.5*(${C5neg}+${C5pos})
variable C56 equal 0.5*(-2.70397895046556e-10+${C5pos})
variable C56 equal 0.5*(-2.70397895046556e-10+-3.76766108032907e-10)
variable C6${dir} equal 0.5*(${C6neg}+${C6pos})
variable C66 equal 0.5*(${C6neg}+${C6pos})
variable C66 equal 0.5*(46.4193055510477+${C6pos})
variable C66 equal 0.5*(46.4193055510477+46.4193055507323)

# Delete dir to make sure it is not reused

variable dir delete

# Output final values

variable C11all equal ${C11}
variable C11all equal 124.238214671822
variable C22all equal ${C22}
variable C22all equal 124.238214662556
variable C33all equal ${C33}
variable C33all equal 124.238214672963

variable C12all equal 0.5*(${C12}+${C21})
variable C12all equal 0.5*(93.8727315700519+${C21})
variable C12all equal 0.5*(93.8727315700519+93.8727315766343)
variable C13all equal 0.5*(${C13}+${C31})
variable C13all equal 0.5*(93.8727315778515+${C31})
variable C13all equal 0.5*(93.8727315778515+93.8727315774103)
variable C23all equal 0.5*(${C23}+${C32})
variable C23all equal 0.5*(93.8727315786447+${C32})
variable C23all equal 0.5*(93.8727315786447+93.8727315682272)

variable C44all equal ${C44}
variable C44all equal 46.4193055523117
variable C55all equal ${C55}
variable C55all equal 46.4193055527311
variable C66all equal ${C66}
variable C66all equal 46.41930555089

variable C14all equal 0.5*(${C14}+${C41})
variable C14all equal 0.5*(9.34685777501492e-10+${C41})
variable C14all equal 0.5*(9.34685777501492e-10+-9.39965923312636e-10)
variable C15all equal 0.5*(${C15}+${C51})
variable C15all equal 0.5*(-8.63553433002071e-10+${C51})
variable C15all equal 0.5*(-8.63553433002071e-10+1.19946954802529e-10)
variable C16all equal 0.5*(${C16}+${C61})
variable C16all equal 0.5*(-8.94316796700968e-10+${C61})
variable C16all equal 0.5*(-8.94316796700968e-10+8.1893260143245e-10)

variable C24all equal 0.5*(${C24}+${C42})
variable C24all equal 0.5*(9.16098696999713e-10+${C42})
variable C24all equal 0.5*(9.16098696999713e-10+3.13133012725276e-10)
variable C25all equal 0.5*(${C25}+${C52})
variable C25all equal 0.5*(1.49426586350663e-10+${C52})
variable C25all equal 0.5*(1.49426586350663e-10+2.9790320012592e-10)
variable C26all equal 0.5*(${C26}+${C62})
variable C26all equal 0.5*(-1.62223849399523e-09+${C62})
variable C26all equal 0.5*(-1.62223849399523e-09+-3.40893951798354e-10)

variable C34all equal 0.5*(${C34}+${C43})
variable C34all equal 0.5*(-1.45459522004438e-10+${C43})
variable C34all equal 0.5*(-1.45459522004438e-10+-8.51232448980155e-10)
variable C35all equal 0.5*(${C35}+${C53})
variable C35all equal 0.5*(1.10877685491665e-10+${C53})
variable C35all equal 0.5*(1.10877685491665e-10+3.14174666559445e-11)
variable C36all equal 0.5*(${C36}+${C63})
variable C36all equal 0.5*(-5.88312323699145e-10+${C63})
variable C36all equal 0.5*(-5.88312323699145e-10+6.10924922685515e-11)

variable C45all equal 0.5*(${C45}+${C54})
variable C45all equal 0.5*(-1.06124817416061e-10+${C54})
variable C45all equal 0.5*(-1.06124817416061e-10+2.16151877818959e-10)
variable C46all equal 0.5*(${C46}+${C64})
variable C46all equal 0.5*(-1.45134451006305e-10+${C64})
variable C46all equal 0.5*(-1.45134451006305e-10+-1.84446888709286e-09)
variable C56all equal 0.5*(${C56}+${C65})
variable C56all equal 0.5*(-3.23582001539732e-10+${C65})
variable C56all equal 0.5*(-3.23582001539732e-10+2.79017785064145e-10)

# Average moduli for cubic crystals

variable C11cubic equal (${C11all}+${C22all}+${C33all})/3.0
variable C11cubic equal (124.238214671822+${C22all}+${C33all})/3.0
variable C11cubic equal (124.238214671822+124.238214662556+${C33all})/3.0
variable C11cubic equal (124.238214671822+124.238214662556+124.238214672963)/3.0
variable C12cubic equal (${C12all}+${C13all}+${C23all})/3.0
variable C12cubic equal (93.8727315733431+${C13all}+${C23all})/3.0
variable C12cubic equal (93.8727315733431+93.8727315776309+${C23all})/3.0
variable C12cubic equal (93.8727315733431+93.8727315776309+93.8727315734359)/3.0
variable C44cubic equal (${C44all}+${C55all}+${C66all})/3.0
variable C44cubic equal (46.4193055523117+${C55all}+${C66all})/3.0
variable C44cubic equal (46.4193055523117+46.4193055527311+${C66all})/3.0
variable C44cubic equal (46.4193055523117+46.4193055527311+46.41930555089)/3.0

variable bulkmodulus equal (${C11cubic}+2*${C12cubic})/3.0
variable bulkmodulus equal (124.238214669114+2*${C12cubic})/3.0
variable bulkmodulus equal (124.238214669114+2*93.8727315748033)/3.0
variable shearmodulus1 equal ${C44cubic}
variable shearmodulus1 equal 46.4193055519776
variable shearmodulus2 equal (${C11cubic}-${C12cubic})/2.0
variable shearmodulus2 equal (124.238214669114-${C12cubic})/2.0
variable shearmodulus2 equal (124.238214669114-93.8727315748033)/2.0
variable poissonratio equal 1.0/(1.0+${C11cubic}/${C12cubic})
variable poissonratio equal 1.0/(1.0+124.238214669114/${C12cubic})
variable poissonratio equal 1.0/(1.0+124.238214669114/93.8727315748033)

# For Stillinger-Weber silicon, the analytical results
# are known to be (E. R. Cowley, 1988):
#               C11 = 151.4 GPa
#               C12 = 76.4 GPa
#               C44 = 56.4 GPa

print "========================================="
=========================================
print "Components of the Elastic Constant Tensor"
Components of the Elastic Constant Tensor
print "========================================="
=========================================

print "Elastic Constant C11all = ${C11all} ${cunits}"
Elastic Constant C11all = 124.238214671822 GPa
print "Elastic Constant C22all = ${C22all} ${cunits}"
Elastic Constant C22all = 124.238214662556 GPa
print "Elastic Constant C33all = ${C33all} ${cunits}"
Elastic Constant C33all = 124.238214672963 GPa

print "Elastic Constant C12all = ${C12all} ${cunits}"
Elastic Constant C12all = 93.8727315733431 GPa
print "Elastic Constant C13all = ${C13all} ${cunits}"
Elastic Constant C13all = 93.8727315776309 GPa
print "Elastic Constant C23all = ${C23all} ${cunits}"
Elastic Constant C23all = 93.8727315734359 GPa

print "Elastic Constant C44all = ${C44all} ${cunits}"
Elastic Constant C44all = 46.4193055523117 GPa
print "Elastic Constant C55all = ${C55all} ${cunits}"
Elastic Constant C55all = 46.4193055527311 GPa
print "Elastic Constant C66all = ${C66all} ${cunits}"
Elastic Constant C66all = 46.41930555089 GPa

print "Elastic Constant C14all = ${C14all} ${cunits}"
Elastic Constant C14all = -2.640072905572e-12 GPa
print "Elastic Constant C15all = ${C15all} ${cunits}"
Elastic Constant C15all = -3.71803239099771e-10 GPa
print "Elastic Constant C16all = ${C16all} ${cunits}"
Elastic Constant C16all = -3.7692097634259e-11 GPa

print "Elastic Constant C24all = ${C24all} ${cunits}"
Elastic Constant C24all = 6.14615854862494e-10 GPa
print "Elastic Constant C25all = ${C25all} ${cunits}"
Elastic Constant C25all = 2.23664893238292e-10 GPa
print "Elastic Constant C26all = ${C26all} ${cunits}"
Elastic Constant C26all = -9.81566222896792e-10 GPa

print "Elastic Constant C34all = ${C34all} ${cunits}"
Elastic Constant C34all = -4.98345985492296e-10 GPa
print "Elastic Constant C35all = ${C35all} ${cunits}"
Elastic Constant C35all = 7.11475760738048e-11 GPa
print "Elastic Constant C36all = ${C36all} ${cunits}"
Elastic Constant C36all = -2.63609915715297e-10 GPa

print "Elastic Constant C45all = ${C45all} ${cunits}"
Elastic Constant C45all = 5.5013530201449e-11 GPa
print "Elastic Constant C46all = ${C46all} ${cunits}"
Elastic Constant C46all = -9.94801669049582e-10 GPa
print "Elastic Constant C56all = ${C56all} ${cunits}"
Elastic Constant C56all = -2.22821082377935e-11 GPa

print "========================================="
=========================================
print "Average properties for a cubic crystal"
Average properties for a cubic crystal
print "========================================="
=========================================

print "Bulk Modulus = ${bulkmodulus} ${cunits}"
Bulk Modulus = 103.994559272907 GPa
print "Shear Modulus 1 = ${shearmodulus1} ${cunits}"
Shear Modulus 1 = 46.4193055519776 GPa
print "Shear Modulus 2 = ${shearmodulus2} ${cunits}"
Shear Modulus 2 = 15.1827415471554 GPa
print "Poisson Ratio = ${poissonratio}"
Poisson Ratio = 0.430389823121595
Total wall time: 0:00:01
