LAMMPS (2 Aug 2023 - Update 3)
#####################################################################################################################
# Course: Theory, Modelling, and Simulation of Microstructures (TMS)
# Tutors: Dr. Arun Prakash
# Description: Input file for computing Stack Fault Energy (SFE)
# Originally created by Richard Glaze, 2014. Modified by S. Roy, 2018
######################################################################################################################

# --------------------- INITIALIZAITION ---------------------

variable	Ndiscrt equal 30
variable    	i loop ${Ndiscrt}
variable    	i loop 30
label       	loop

clear
units		metal
dimension	3
boundary	p p s
atom_style	atomic
variable 	latparam1 equal 4.09000014545435
variable 	x_displace equal -1*(${latparam1}/sqrt(6)*${i}/${Ndiscrt}*2.0)
variable 	x_displace equal -1*(4.09000014545435/sqrt(6)*${i}/${Ndiscrt}*2.0)
variable 	x_displace equal -1*(4.09000014545435/sqrt(6)*1/${Ndiscrt}*2.0)
variable 	x_displace equal -1*(4.09000014545435/sqrt(6)*1/30*2.0)
variable 	xdim equal ${latparam1}*sqrt(6)/2*10
variable 	xdim equal 4.09000014545435*sqrt(6)/2*10
variable 	ydim equal ${latparam1}*sqrt(2)/2*10
variable 	ydim equal 4.09000014545435*sqrt(2)/2*10
variable 	atomjiggle equal 1.0e-5
variable 	Bx_displace equal ${i}/${Ndiscrt}*2.0
variable 	Bx_displace equal 1/${Ndiscrt}*2.0
variable 	Bx_displace equal 1/30*2.0

# --------------------- ATOM DEFINITION ---------------------
lattice		fcc ${latparam1}
lattice		fcc 4.09000014545435
Lattice spacing in x,y,z = 4.0900001 4.0900001 4.0900001
region		1 block -.001 ${xdim} -.001 ${ydim} -.001 16.5 units box
region		1 block -.001 50.0920670213607 -.001 ${ydim} -.001 16.5 units box
region		1 block -.001 50.0920670213607 -.001 28.9206683790474 -.001 16.5 units box
region 		2 block -.001 ${xdim} -.001 ${ydim} 16.5 36.5808 units box
region 		2 block -.001 50.0920670213607 -.001 ${ydim} 16.5 36.5808 units box
region 		2 block -.001 50.0920670213607 -.001 28.9206683790474 16.5 36.5808 units box
region		whole block 0 ${xdim} 0 ${ydim} 0 36.5808 units box
region		whole block 0 50.0920670213607 0 ${ydim} 0 36.5808 units box
region		whole block 0 50.0920670213607 0 28.9206683790474 0 36.5808 units box
#the -.001 in the -x and -y and lower limit of region 1 are only to overcome a simple numerical issue but can be considered 0
create_box 	1 whole
Created orthogonal box = (0 0 0) to (50.092067 28.920668 36.5808)
  1 by 1 by 1 MPI processor grid
lattice 	fcc ${latparam1} orient x 1 1 2 orient y -1 1 0 orient z -1 -1 1
lattice 	fcc 4.09000014545435 orient x 1 1 2 orient y -1 1 0 orient z -1 -1 1
Lattice spacing in x,y,z = 6.6789423 5.7841337 7.0840881
create_atoms	1 region 1
Created 1400 atoms
  using lattice units in orthogonal box = (0 0 -0.00365808) to (50.092067 28.920668 36.584458)
  create_atoms CPU = 0.001 seconds
lattice 	fcc ${latparam1} orient x 1 1 2 orient y -1 1 0 orient z -1 -1 1
lattice 	fcc 4.09000014545435 orient x 1 1 2 orient y -1 1 0 orient z -1 -1 1
Lattice spacing in x,y,z = 6.6789423 5.7841337 7.0840881
create_atoms 	1 region 2
Created 1800 atoms
  using lattice units in orthogonal box = (0 0 -0.00365808) to (50.092067 28.920668 36.584458)
  create_atoms CPU = 0.001 seconds

# --------------------- FORCE FIELDS ---------------------
#Provide potential
pair_style      eam/alloy ### --> TYPE OF POTENTIAL (eam (OR) eam/alloy)
pair_coeff      *  *  CuAg.eam.alloy Ag  ### POTENTIAL FILENAME


# --------------------- SETTINGS ---------------------

fix 		1 all setforce 0 0 NULL
min_style 	cg
minimize 	0.0 1e-8 20000 20000
Neighbor list info ...
  update: every = 1 steps, delay = 0 steps, check = yes
  max neighbors/atom: 2000, page size: 100000
  master list distance cutoff = 7.995011
  ghost atom cutoff = 7.995011
  binsize = 3.9975055, bins = 13 8 10
  1 neighbor lists, perpetual/occasional/extra = 1 0 0
  (1) pair eam/alloy, perpetual
      attributes: half, newton on
      pair build: half/bin/atomonly/newton
      stencil: half/bin/3d
      bin: standard
Per MPI rank memory allocation (min/avg/max) = 5.411 | 5.411 | 5.411 Mbytes
   Step          Temp          E_pair         E_mol          TotEng         Press          Volume    
         0   0             -8963.0005      0             -8963.0005     -5973.3391      51324.051    
        30   0             -8964.0763      0             -8964.0763     -3443.7334      51324.051    
Loop time of 0.301347 on 1 procs for 30 steps with 3200 atoms

100.0% CPU use with 1 MPI tasks x no OpenMP threads

Minimization stats:
  Stopping criterion = linesearch alpha is zero
  Energy initial, next-to-last, final = 
     -8963.00049826424  -8964.07633391507  -8964.07633391507
  Force two-norm initial, final = 3.47643 4.9599618e-07
  Force max component initial, final = 0.12627393 1.6676942e-08
  Final line search alpha, max atom move = 0.5 8.3384712e-09
  Iterations, force evaluations = 30 60

MPI task timing breakdown:
Section |  min time  |  avg time  |  max time  |%varavg| %total
---------------------------------------------------------------
Pair    | 0.29669    | 0.29669    | 0.29669    |   0.0 | 98.45
Neigh   | 0          | 0          | 0          |   0.0 |  0.00
Comm    | 0.00097815 | 0.00097815 | 0.00097815 |   0.0 |  0.32
Output  | 0          | 0          | 0          |   0.0 |  0.00
Modify  | 0.00056579 | 0.00056579 | 0.00056579 |   0.0 |  0.19
Other   |            | 0.003117   |            |       |  1.03

Nlocal:           3200 ave        3200 max        3200 min
Histogram: 1 0 0 0 0 0 0 0 0 0
Nghost:           3344 ave        3344 max        3344 min
Histogram: 1 0 0 0 0 0 0 0 0 0
Neighs:         197600 ave      197600 max      197600 min
Histogram: 1 0 0 0 0 0 0 0 0 0

Total # of neighbors = 197600
Ave neighs/atom = 61.75
Neighbor list builds = 0
Dangerous builds = 0



compute 	peratom all pe/atom
compute 	eatoms all reduce sum c_peratom
compute 	csym all centro/atom fcc
thermo 		10
thermo_style 	custom step temp pe c_eatoms pxx pyy pzz lx ly lz fnorm
dump 		1 all custom 1 dump.relax.1.* id type xs ys zs c_peratom c_csym
run 0
WARNING: No fixes with time integration, atoms won't move (../verlet.cpp:60)
Neighbor list info ...
  update: every = 1 steps, delay = 0 steps, check = yes
  max neighbors/atom: 2000, page size: 100000
  master list distance cutoff = 7.995011
  ghost atom cutoff = 7.995011
  binsize = 3.9975055, bins = 13 8 9
  2 neighbor lists, perpetual/occasional/extra = 1 1 0
  (1) pair eam/alloy, perpetual
      attributes: half, newton on
      pair build: half/bin/atomonly/newton
      stencil: half/bin/3d
      bin: standard
  (2) compute centro/atom, occasional
      attributes: full, newton on
      pair build: full/bin/atomonly
      stencil: full/bin/3d
      bin: standard
Per MPI rank memory allocation (min/avg/max) = 5.042 | 5.042 | 5.042 Mbytes
   Step          Temp          PotEng        c_eatoms         Pxx            Pyy            Pzz             Lx             Ly             Lz           Fnorm     
        30   0             -8964.0763     -8964.0763     -5177.9056     -5177.9056     -0.0070721536   50.092067      28.920668      35.343537      4.9599618e-07
Loop time of 1.15e-06 on 1 procs for 0 steps with 3200 atoms

87.0% CPU use with 1 MPI tasks x no OpenMP threads

MPI task timing breakdown:
Section |  min time  |  avg time  |  max time  |%varavg| %total
---------------------------------------------------------------
Pair    | 0          | 0          | 0          |   0.0 |  0.00
Neigh   | 0          | 0          | 0          |   0.0 |  0.00
Comm    | 0          | 0          | 0          |   0.0 |  0.00
Output  | 0          | 0          | 0          |   0.0 |  0.00
Modify  | 0          | 0          | 0          |   0.0 |  0.00
Other   |            | 1.15e-06   |            |       |100.00

Nlocal:           3200 ave        3200 max        3200 min
Histogram: 1 0 0 0 0 0 0 0 0 0
Nghost:           3344 ave        3344 max        3344 min
Histogram: 1 0 0 0 0 0 0 0 0 0
Neighs:         197600 ave      197600 max      197600 min
Histogram: 1 0 0 0 0 0 0 0 0 0
FullNghs:       395200 ave      395200 max      395200 min
Histogram: 1 0 0 0 0 0 0 0 0 0

Total # of neighbors = 395200
Ave neighs/atom = 123.5
Neighbor list builds = 0
Dangerous builds = 0
#this command creates a model of the script before the displacement and minimization occur
variable 	E equal "c_eatoms"
variable 	Eo equal $E
variable 	Eo equal -8964.07633391985
#variable 	E equal "c_eatoms" computes the initial energy of the model before any sliding is done
#E is necessary to store the initial energy in Eo

group 		bot region 1
1400 atoms in group bot
group 		top region 2
1800 atoms in group top

displace_atoms 	top move ${x_displace} 0.0 0.0 units box
displace_atoms 	top move -0.111315704491913 0.0 0.0 units box
Displacing atoms ...

#displace_atoms is the command neccessary to move atoms into the next stacking arrangement (ie: A -> B)

fix 		1 all setforce 0 0 NULL
min_style 	cg
minimize 	0.0 1e-8 20000 20000
Per MPI rank memory allocation (min/avg/max) = 9.367 | 9.367 | 9.367 Mbytes
   Step          Temp          PotEng        c_eatoms         Pxx            Pyy            Pzz             Lx             Ly             Lz           Fnorm     
        30   0             -8963.5162     -8963.5162     -5664.0319     -4709.431       133.4407       50.092067      28.920668      35.343537      0.20092576   
        40   0             -8963.5194     -8963.5194     -5707.4444     -4764.797       19.903994      50.092067      28.920668      35.343537      0.0085606796 
        50   0             -8963.5195     -8963.5195     -5716.0561     -4773.4718     -0.040648019    50.092067      28.920668      35.343537      1.1932102e-05
        60   0             -8963.5195     -8963.5195     -5716.0383     -4773.4537     -0.00019925636  50.092067      28.920668      35.343537      4.8267697e-07
        66   0             -8963.5195     -8963.5195     -5716.0382     -4773.4536      7.114052e-06   50.092067      28.920668      35.343537      8.3922081e-09
Loop time of 1.0062 on 1 procs for 36 steps with 3200 atoms

84.9% CPU use with 1 MPI tasks x no OpenMP threads

Minimization stats:
  Stopping criterion = force tolerance
  Energy initial, next-to-last, final = 
     -8963.51618501273   -8963.5194672428  -8963.51946724119
  Force two-norm initial, final = 0.20092576 8.3922081e-09
  Force max component initial, final = 0.010040486 3.505429e-10
  Final line search alpha, max atom move = 1 3.505429e-10
  Iterations, force evaluations = 36 72

MPI task timing breakdown:
Section |  min time  |  avg time  |  max time  |%varavg| %total
---------------------------------------------------------------
Pair    | 0.42616    | 0.42616    | 0.42616    |   0.0 | 42.35
Neigh   | 0          | 0          | 0          |   0.0 |  0.00
Comm    | 0.0013723  | 0.0013723  | 0.0013723  |   0.0 |  0.14
Output  | 0.55842    | 0.55842    | 0.55842    |   0.0 | 55.50
Modify  | 0.00078801 | 0.00078801 | 0.00078801 |   0.0 |  0.08
Other   |            | 0.01945    |            |       |  1.93

Nlocal:           3200 ave        3200 max        3200 min
Histogram: 1 0 0 0 0 0 0 0 0 0
Nghost:           3344 ave        3344 max        3344 min
Histogram: 1 0 0 0 0 0 0 0 0 0
Neighs:         197600 ave      197600 max      197600 min
Histogram: 1 0 0 0 0 0 0 0 0 0
FullNghs:       395200 ave      395200 max      395200 min
Histogram: 1 0 0 0 0 0 0 0 0 0

Total # of neighbors = 395200
Ave neighs/atom = 123.5
Neighbor list builds = 0
Dangerous builds = 0

displace_atoms 	all random ${atomjiggle} ${atomjiggle} ${atomjiggle} 87287 units box
displace_atoms 	all random 1e-05 ${atomjiggle} ${atomjiggle} 87287 units box
displace_atoms 	all random 1e-05 1e-05 ${atomjiggle} 87287 units box
displace_atoms 	all random 1e-05 1e-05 1e-05 87287 units box
Displacing atoms ...
minimize 	0.0 1e-8 20000 20000
Per MPI rank memory allocation (min/avg/max) = 9.367 | 9.367 | 9.367 Mbytes
   Step          Temp          PotEng        c_eatoms         Pxx            Pyy            Pzz             Lx             Ly             Lz           Fnorm     
        66   0             -8963.5195     -8963.5195     -5715.5903     -4773.0737     -0.020397438    50.092067      28.920668      35.346379      0.0018471578 
        70   0             -8963.5195     -8963.5195     -5715.5831     -4773.0655     -0.003316103    50.092067      28.920668      35.346379      5.920475e-05 
        80   0             -8963.5195     -8963.5195     -5715.5811     -4773.0635      0.0010237293   50.092067      28.920668      35.346379      4.7764334e-06
        90   0             -8963.5195     -8963.5195     -5715.5817     -4773.0641     -0.00039861038  50.092067      28.920668      35.346379      1.3923135e-06
       100   0             -8963.5195     -8963.5195     -5715.5816     -4773.064      -0.00021867834  50.092067      28.920668      35.346379      5.4258089e-07
       110   0             -8963.5195     -8963.5195     -5715.5815     -4773.064      -2.6604351e-05  50.092067      28.920668      35.346379      7.0628992e-08
       117   0             -8963.5195     -8963.5195     -5715.5815     -4773.0639     -2.4271517e-06  50.092067      28.920668      35.346379      8.2386836e-09
Loop time of 1.40524 on 1 procs for 51 steps with 3200 atoms

85.1% CPU use with 1 MPI tasks x no OpenMP threads

Minimization stats:
  Stopping criterion = force tolerance
  Energy initial, next-to-last, final = 
     -8963.51947730214      -8963.5194776  -8963.51947759991
  Force two-norm initial, final = 0.0018471578 8.2386836e-09
  Force max component initial, final = 9.6884694e-05 5.8353616e-10
  Final line search alpha, max atom move = 1 5.8353616e-10
  Iterations, force evaluations = 51 102

MPI task timing breakdown:
Section |  min time  |  avg time  |  max time  |%varavg| %total
---------------------------------------------------------------
Pair    | 0.58696    | 0.58696    | 0.58696    |   0.0 | 41.77
Neigh   | 0          | 0          | 0          |   0.0 |  0.00
Comm    | 0.0018378  | 0.0018378  | 0.0018378  |   0.0 |  0.13
Output  | 0.79253    | 0.79253    | 0.79253    |   0.0 | 56.40
Modify  | 0.0010335  | 0.0010335  | 0.0010335  |   0.0 |  0.07
Other   |            | 0.02287    |            |       |  1.63

Nlocal:           3200 ave        3200 max        3200 min
Histogram: 1 0 0 0 0 0 0 0 0 0
Nghost:           3344 ave        3344 max        3344 min
Histogram: 1 0 0 0 0 0 0 0 0 0
Neighs:         197600 ave      197600 max      197600 min
Histogram: 1 0 0 0 0 0 0 0 0 0
FullNghs:       395200 ave      395200 max      395200 min
Histogram: 1 0 0 0 0 0 0 0 0 0

Total # of neighbors = 395200
Ave neighs/atom = 123.5
Neighbor list builds = 0
Dangerous builds = 0


variable 	Ef equal "c_eatoms"
variable	Cf equal 1.60217657e-16
variable 	A equal (${xdim}*${ydim})*1e-20
variable 	A equal (50.0920670213607*${ydim})*1e-20
variable 	A equal (50.0920670213607*28.9206683790474)*1e-20
variable 	SFE equal ((${Ef}-${Eo})*${Cf})/${A}
variable 	SFE equal ((-8963.5194775998-${Eo})*${Cf})/${A}
variable 	SFE equal ((-8963.5194775998--8964.07633391985)*${Cf})/${A}
variable 	SFE equal ((-8963.5194775998--8964.07633391985)*1.60217657e-16)/${A}
variable 	SFE equal ((-8963.5194775998--8964.07633391985)*1.60217657e-16)/1.44869605874579e-17

#variable 	Ef equal "c_eatoms" computes the final energy of the system after sliding is done
#variable 	A is the area of the Stacking fault plane
#variable 	Cf is the conversion factor of electro volts to millijoules
#variable 	SFE is the stacking-fault energy of the system

####################################
# SIMULATION DONE
print "All done"
All done
print "Initial energy of atoms = ${Eo} eV"
Initial energy of atoms = -8964.07633391985 eV
print "Final energy of atoms = ${Ef} eV"
Final energy of atoms = -8963.5194775998 eV
print "displacement and Stacking-fault energy = ${x_displace} ${Bx_displace} ${SFE}" # in SFE in mJ/m^2"
displacement and Stacking-fault energy = -0.111315704491913 0.0666666666666667 6.15851850670948


next 		i
jump		SFE_displacement1.lmpin
#####################################################################################################################
# Course: Theory, Modelling, and Simulation of Microstructures (TMS)
# Tutors: Dr. Arun Prakash
# Description: Input file for computing Stack Fault Energy (SFE)
# Originally created by Richard Glaze, 2014. Modified by S. Roy, 2018
######################################################################################################################

# --------------------- INITIALIZAITION ---------------------

variable	Ndiscrt equal 30
variable    	i loop ${Ndiscrt}
variable    	i loop 30
label       	loop

clear
units		metal
dimension	3
boundary	p p s
atom_style	atomic
variable 	latparam1 equal 4.09000014545435
variable 	x_displace equal -1*(${latparam1}/sqrt(6)*${i}/${Ndiscrt}*2.0)
variable 	x_displace equal -1*(4.09000014545435/sqrt(6)*${i}/${Ndiscrt}*2.0)
variable 	x_displace equal -1*(4.09000014545435/sqrt(6)*2/${Ndiscrt}*2.0)
variable 	x_displace equal -1*(4.09000014545435/sqrt(6)*2/30*2.0)
variable 	xdim equal ${latparam1}*sqrt(6)/2*10
variable 	xdim equal 4.09000014545435*sqrt(6)/2*10
variable 	ydim equal ${latparam1}*sqrt(2)/2*10
variable 	ydim equal 4.09000014545435*sqrt(2)/2*10
variable 	atomjiggle equal 1.0e-5
variable 	Bx_displace equal ${i}/${Ndiscrt}*2.0
variable 	Bx_displace equal 2/${Ndiscrt}*2.0
variable 	Bx_displace equal 2/30*2.0

# --------------------- ATOM DEFINITION ---------------------
lattice		fcc ${latparam1}
lattice		fcc 4.09000014545435
Lattice spacing in x,y,z = 4.0900001 4.0900001 4.0900001
region		1 block -.001 ${xdim} -.001 ${ydim} -.001 16.5 units box
region		1 block -.001 50.0920670213607 -.001 ${ydim} -.001 16.5 units box
region		1 block -.001 50.0920670213607 -.001 28.9206683790474 -.001 16.5 units box
region 		2 block -.001 ${xdim} -.001 ${ydim} 16.5 36.5808 units box
region 		2 block -.001 50.0920670213607 -.001 ${ydim} 16.5 36.5808 units box
region 		2 block -.001 50.0920670213607 -.001 28.9206683790474 16.5 36.5808 units box
region		whole block 0 ${xdim} 0 ${ydim} 0 36.5808 units box
region		whole block 0 50.0920670213607 0 ${ydim} 0 36.5808 units box
region		whole block 0 50.0920670213607 0 28.9206683790474 0 36.5808 units box
#the -.001 in the -x and -y and lower limit of region 1 are only to overcome a simple numerical issue but can be considered 0
create_box 	1 whole
Created orthogonal box = (0 0 0) to (50.092067 28.920668 36.5808)
  1 by 1 by 1 MPI processor grid
lattice 	fcc ${latparam1} orient x 1 1 2 orient y -1 1 0 orient z -1 -1 1
lattice 	fcc 4.09000014545435 orient x 1 1 2 orient y -1 1 0 orient z -1 -1 1
Lattice spacing in x,y,z = 6.6789423 5.7841337 7.0840881
create_atoms	1 region 1
Created 1400 atoms
  using lattice units in orthogonal box = (0 0 -0.00365808) to (50.092067 28.920668 36.584458)
  create_atoms CPU = 0.001 seconds
lattice 	fcc ${latparam1} orient x 1 1 2 orient y -1 1 0 orient z -1 -1 1
lattice 	fcc 4.09000014545435 orient x 1 1 2 orient y -1 1 0 orient z -1 -1 1
Lattice spacing in x,y,z = 6.6789423 5.7841337 7.0840881
create_atoms 	1 region 2
Created 1800 atoms
  using lattice units in orthogonal box = (0 0 -0.00365808) to (50.092067 28.920668 36.584458)
  create_atoms CPU = 0.001 seconds

# --------------------- FORCE FIELDS ---------------------
#Provide potential
pair_style      eam/alloy ### --> TYPE OF POTENTIAL (eam (OR) eam/alloy)
pair_coeff      *  *  CuAg.eam.alloy Ag  ### POTENTIAL FILENAME


# --------------------- SETTINGS ---------------------

fix 		1 all setforce 0 0 NULL
min_style 	cg
minimize 	0.0 1e-8 20000 20000
Neighbor list info ...
  update: every = 1 steps, delay = 0 steps, check = yes
  max neighbors/atom: 2000, page size: 100000
  master list distance cutoff = 7.995011
  ghost atom cutoff = 7.995011
  binsize = 3.9975055, bins = 13 8 10
  1 neighbor lists, perpetual/occasional/extra = 1 0 0
  (1) pair eam/alloy, perpetual
      attributes: half, newton on
      pair build: half/bin/atomonly/newton
      stencil: half/bin/3d
      bin: standard
Per MPI rank memory allocation (min/avg/max) = 5.411 | 5.411 | 5.411 Mbytes
   Step          Temp          E_pair         E_mol          TotEng         Press          Volume    
         0   0             -8963.0005      0             -8963.0005     -5973.3391      51324.051    
        30   0             -8964.0763      0             -8964.0763     -3443.7334      51324.051    
Loop time of 0.310315 on 1 procs for 30 steps with 3200 atoms

99.9% CPU use with 1 MPI tasks x no OpenMP threads

Minimization stats:
  Stopping criterion = linesearch alpha is zero
  Energy initial, next-to-last, final = 
     -8963.00049826424  -8964.07633391507  -8964.07633391507
  Force two-norm initial, final = 3.47643 4.9599618e-07
  Force max component initial, final = 0.12627393 1.6676942e-08
  Final line search alpha, max atom move = 0.5 8.3384712e-09
  Iterations, force evaluations = 30 60

MPI task timing breakdown:
Section |  min time  |  avg time  |  max time  |%varavg| %total
---------------------------------------------------------------
Pair    | 0.30568    | 0.30568    | 0.30568    |   0.0 | 98.50
Neigh   | 0          | 0          | 0          |   0.0 |  0.00
Comm    | 0.00097201 | 0.00097201 | 0.00097201 |   0.0 |  0.31
Output  | 0          | 0          | 0          |   0.0 |  0.00
Modify  | 0.00058643 | 0.00058643 | 0.00058643 |   0.0 |  0.19
Other   |            | 0.003082   |            |       |  0.99

Nlocal:           3200 ave        3200 max        3200 min
Histogram: 1 0 0 0 0 0 0 0 0 0
Nghost:           3344 ave        3344 max        3344 min
Histogram: 1 0 0 0 0 0 0 0 0 0
Neighs:         197600 ave      197600 max      197600 min
Histogram: 1 0 0 0 0 0 0 0 0 0

Total # of neighbors = 197600
Ave neighs/atom = 61.75
Neighbor list builds = 0
Dangerous builds = 0



compute 	peratom all pe/atom
compute 	eatoms all reduce sum c_peratom
compute 	csym all centro/atom fcc
thermo 		10
thermo_style 	custom step temp pe c_eatoms pxx pyy pzz lx ly lz fnorm
dump 		1 all custom 1 dump.relax.1.* id type xs ys zs c_peratom c_csym
run 0
WARNING: No fixes with time integration, atoms won't move (../verlet.cpp:60)
Neighbor list info ...
  update: every = 1 steps, delay = 0 steps, check = yes
  max neighbors/atom: 2000, page size: 100000
  master list distance cutoff = 7.995011
  ghost atom cutoff = 7.995011
  binsize = 3.9975055, bins = 13 8 9
  2 neighbor lists, perpetual/occasional/extra = 1 1 0
  (1) pair eam/alloy, perpetual
      attributes: half, newton on
      pair build: half/bin/atomonly/newton
      stencil: half/bin/3d
      bin: standard
  (2) compute centro/atom, occasional
      attributes: full, newton on
      pair build: full/bin/atomonly
      stencil: full/bin/3d
      bin: standard
Per MPI rank memory allocation (min/avg/max) = 5.042 | 5.042 | 5.042 Mbytes
   Step          Temp          PotEng        c_eatoms         Pxx            Pyy            Pzz             Lx             Ly             Lz           Fnorm     
        30   0             -8964.0763     -8964.0763     -5177.9056     -5177.9056     -0.0070721536   50.092067      28.920668      35.343537      4.9599618e-07
Loop time of 1.198e-06 on 1 procs for 0 steps with 3200 atoms

166.9% CPU use with 1 MPI tasks x no OpenMP threads

MPI task timing breakdown:
Section |  min time  |  avg time  |  max time  |%varavg| %total
---------------------------------------------------------------
Pair    | 0          | 0          | 0          |   0.0 |  0.00
Neigh   | 0          | 0          | 0          |   0.0 |  0.00
Comm    | 0          | 0          | 0          |   0.0 |  0.00
Output  | 0          | 0          | 0          |   0.0 |  0.00
Modify  | 0          | 0          | 0          |   0.0 |  0.00
Other   |            | 1.198e-06  |            |       |100.00

Nlocal:           3200 ave        3200 max        3200 min
Histogram: 1 0 0 0 0 0 0 0 0 0
Nghost:           3344 ave        3344 max        3344 min
Histogram: 1 0 0 0 0 0 0 0 0 0
Neighs:         197600 ave      197600 max      197600 min
Histogram: 1 0 0 0 0 0 0 0 0 0
FullNghs:       395200 ave      395200 max      395200 min
Histogram: 1 0 0 0 0 0 0 0 0 0

Total # of neighbors = 395200
Ave neighs/atom = 123.5
Neighbor list builds = 0
Dangerous builds = 0
#this command creates a model of the script before the displacement and minimization occur
variable 	E equal "c_eatoms"
variable 	Eo equal $E
variable 	Eo equal -8964.07633391985
#variable 	E equal "c_eatoms" computes the initial energy of the model before any sliding is done
#E is necessary to store the initial energy in Eo

group 		bot region 1
1400 atoms in group bot
group 		top region 2
1800 atoms in group top

displace_atoms 	top move ${x_displace} 0.0 0.0 units box
displace_atoms 	top move -0.222631408983825 0.0 0.0 units box
Displacing atoms ...

#displace_atoms is the command neccessary to move atoms into the next stacking arrangement (ie: A -> B)

fix 		1 all setforce 0 0 NULL
min_style 	cg
minimize 	0.0 1e-8 20000 20000
Per MPI rank memory allocation (min/avg/max) = 9.367 | 9.367 | 9.367 Mbytes
   Step          Temp          PotEng        c_eatoms         Pxx            Pyy            Pzz             Lx             Ly             Lz           Fnorm     
        30   0             -8962.0516     -8962.0516     -6173.4916     -4247.3015      474.984        50.092067      28.920668      35.343537      0.71586305   
        40   0             -8962.0919     -8962.0919     -6287.2195     -4443.8878      102.01812      50.092067      28.920668      35.343537      0.034827569  
        50   0             -8962.0923     -8962.0923     -6331.7525     -4489.0068      0.13457068     50.092067      28.920668      35.343537      0.00021751465
        60   0             -8962.0923     -8962.0923     -6331.781      -4489.0508      0.041428639    50.092067      28.920668      35.343537      2.0290041e-05
        70   0             -8962.0923     -8962.0923     -6331.7987     -4489.0696      0.00020698257  50.092067      28.920668      35.343537      3.5269276e-08
        80   0             -8962.0923     -8962.0923     -6331.7988     -4489.0697      3.3121537e-06  50.092067      28.920668      35.343537      7.2139413e-09
Loop time of 1.29846 on 1 procs for 50 steps with 3200 atoms

83.4% CPU use with 1 MPI tasks x no OpenMP threads

Minimization stats:
  Stopping criterion = force tolerance
  Energy initial, next-to-last, final = 
      -8962.0515898029  -8962.09226056043  -8962.09226056117
  Force two-norm initial, final = 0.71586305 7.2139413e-09
  Force max component initial, final = 0.035772222 3.3979591e-10
  Final line search alpha, max atom move = 1 3.3979591e-10
  Iterations, force evaluations = 50 100

MPI task timing breakdown:
Section |  min time  |  avg time  |  max time  |%varavg| %total
---------------------------------------------------------------
Pair    | 0.54114    | 0.54114    | 0.54114    |   0.0 | 41.68
Neigh   | 0          | 0          | 0          |   0.0 |  0.00
Comm    | 0.0017667  | 0.0017667  | 0.0017667  |   0.0 |  0.14
Output  | 0.73357    | 0.73357    | 0.73357    |   0.0 | 56.50
Modify  | 0.00099932 | 0.00099932 | 0.00099932 |   0.0 |  0.08
Other   |            | 0.02098    |            |       |  1.62

Nlocal:           3200 ave        3200 max        3200 min
Histogram: 1 0 0 0 0 0 0 0 0 0
Nghost:           3344 ave        3344 max        3344 min
Histogram: 1 0 0 0 0 0 0 0 0 0
Neighs:         197600 ave      197600 max      197600 min
Histogram: 1 0 0 0 0 0 0 0 0 0
FullNghs:       395200 ave      395200 max      395200 min
Histogram: 1 0 0 0 0 0 0 0 0 0

Total # of neighbors = 395200
Ave neighs/atom = 123.5
Neighbor list builds = 0
Dangerous builds = 0

displace_atoms 	all random ${atomjiggle} ${atomjiggle} ${atomjiggle} 87287 units box
displace_atoms 	all random 1e-05 ${atomjiggle} ${atomjiggle} 87287 units box
displace_atoms 	all random 1e-05 1e-05 ${atomjiggle} 87287 units box
displace_atoms 	all random 1e-05 1e-05 1e-05 87287 units box
Displacing atoms ...
minimize 	0.0 1e-8 20000 20000
Per MPI rank memory allocation (min/avg/max) = 9.367 | 9.367 | 9.367 Mbytes
   Step          Temp          PotEng        c_eatoms         Pxx            Pyy            Pzz             Lx             Ly             Lz           Fnorm     
        80   0             -8962.0923     -8962.0923     -6330.0572     -4487.8503     -0.070510928    50.092067      28.920668      35.353428      0.0018107252 
        90   0             -8962.0923     -8962.0923     -6330.0292     -4487.8218     -0.010035646    50.092067      28.920668      35.353428      7.6391708e-06
       100   0             -8962.0923     -8962.0923     -6330.0256     -4487.8179     -0.0014406438   50.092067      28.920668      35.353428      1.2510771e-06
       110   0             -8962.0923     -8962.0923     -6330.0246     -4487.8169      0.00077075678  50.092067      28.920668      35.353428      6.8291477e-07
       120   0             -8962.0923     -8962.0923     -6330.0248     -4487.8171      0.00027903695  50.092067      28.920668      35.353428      1.549864e-07 
       130   0             -8962.0923     -8962.0923     -6330.0249     -4487.8172      1.8303662e-05  50.092067      28.920668      35.353428      1.2883502e-08
       131   0             -8962.0923     -8962.0923     -6330.0249     -4487.8172      1.5714929e-05  50.092067      28.920668      35.353428      9.7552942e-09
Loop time of 1.46609 on 1 procs for 51 steps with 3200 atoms

84.6% CPU use with 1 MPI tasks x no OpenMP threads

Minimization stats:
  Stopping criterion = force tolerance
  Energy initial, next-to-last, final = 
     -8962.09225496214  -8962.09225525208  -8962.09225525214
  Force two-norm initial, final = 0.0018107252 9.7552942e-09
  Force max component initial, final = 8.6765631e-05 5.8972719e-10
  Final line search alpha, max atom move = 1 5.8972719e-10
  Iterations, force evaluations = 51 102

MPI task timing breakdown:
Section |  min time  |  avg time  |  max time  |%varavg| %total
---------------------------------------------------------------
Pair    | 0.61032    | 0.61032    | 0.61032    |   0.0 | 41.63
Neigh   | 0          | 0          | 0          |   0.0 |  0.00
Comm    | 0.0019935  | 0.0019935  | 0.0019935  |   0.0 |  0.14
Output  | 0.83016    | 0.83016    | 0.83016    |   0.0 | 56.62
Modify  | 0.0010865  | 0.0010865  | 0.0010865  |   0.0 |  0.07
Other   |            | 0.02253    |            |       |  1.54

Nlocal:           3200 ave        3200 max        3200 min
Histogram: 1 0 0 0 0 0 0 0 0 0
Nghost:           3344 ave        3344 max        3344 min
Histogram: 1 0 0 0 0 0 0 0 0 0
Neighs:         197600 ave      197600 max      197600 min
Histogram: 1 0 0 0 0 0 0 0 0 0
FullNghs:       395200 ave      395200 max      395200 min
Histogram: 1 0 0 0 0 0 0 0 0 0

Total # of neighbors = 395200
Ave neighs/atom = 123.5
Neighbor list builds = 0
Dangerous builds = 0


variable 	Ef equal "c_eatoms"
variable	Cf equal 1.60217657e-16
variable 	A equal (${xdim}*${ydim})*1e-20
variable 	A equal (50.0920670213607*${ydim})*1e-20
variable 	A equal (50.0920670213607*28.9206683790474)*1e-20
variable 	SFE equal ((${Ef}-${Eo})*${Cf})/${A}
variable 	SFE equal ((-8962.09225525211-${Eo})*${Cf})/${A}
variable 	SFE equal ((-8962.09225525211--8964.07633391985)*${Cf})/${A}
variable 	SFE equal ((-8962.09225525211--8964.07633391985)*1.60217657e-16)/${A}
variable 	SFE equal ((-8962.09225525211--8964.07633391985)*1.60217657e-16)/1.44869605874579e-17

#variable 	Ef equal "c_eatoms" computes the final energy of the system after sliding is done
#variable 	A is the area of the Stacking fault plane
#variable 	Cf is the conversion factor of electro volts to millijoules
#variable 	SFE is the stacking-fault energy of the system

####################################
# SIMULATION DONE
print "All done"
All done
print "Initial energy of atoms = ${Eo} eV"
Initial energy of atoms = -8964.07633391985 eV
print "Final energy of atoms = ${Ef} eV"
Final energy of atoms = -8962.09225525211 eV
print "displacement and Stacking-fault energy = ${x_displace} ${Bx_displace} ${SFE}" # in SFE in mJ/m^2"
displacement and Stacking-fault energy = -0.222631408983825 0.133333333333333 21.9427970090654


next 		i
jump		SFE_displacement1.lmpin
#####################################################################################################################
# Course: Theory, Modelling, and Simulation of Microstructures (TMS)
# Tutors: Dr. Arun Prakash
# Description: Input file for computing Stack Fault Energy (SFE)
# Originally created by Richard Glaze, 2014. Modified by S. Roy, 2018
######################################################################################################################

# --------------------- INITIALIZAITION ---------------------

variable	Ndiscrt equal 30
variable    	i loop ${Ndiscrt}
variable    	i loop 30
label       	loop

clear
units		metal
dimension	3
boundary	p p s
atom_style	atomic
variable 	latparam1 equal 4.09000014545435
variable 	x_displace equal -1*(${latparam1}/sqrt(6)*${i}/${Ndiscrt}*2.0)
variable 	x_displace equal -1*(4.09000014545435/sqrt(6)*${i}/${Ndiscrt}*2.0)
variable 	x_displace equal -1*(4.09000014545435/sqrt(6)*3/${Ndiscrt}*2.0)
variable 	x_displace equal -1*(4.09000014545435/sqrt(6)*3/30*2.0)
variable 	xdim equal ${latparam1}*sqrt(6)/2*10
variable 	xdim equal 4.09000014545435*sqrt(6)/2*10
variable 	ydim equal ${latparam1}*sqrt(2)/2*10
variable 	ydim equal 4.09000014545435*sqrt(2)/2*10
variable 	atomjiggle equal 1.0e-5
variable 	Bx_displace equal ${i}/${Ndiscrt}*2.0
variable 	Bx_displace equal 3/${Ndiscrt}*2.0
variable 	Bx_displace equal 3/30*2.0

# --------------------- ATOM DEFINITION ---------------------
lattice		fcc ${latparam1}
lattice		fcc 4.09000014545435
Lattice spacing in x,y,z = 4.0900001 4.0900001 4.0900001
region		1 block -.001 ${xdim} -.001 ${ydim} -.001 16.5 units box
region		1 block -.001 50.0920670213607 -.001 ${ydim} -.001 16.5 units box
region		1 block -.001 50.0920670213607 -.001 28.9206683790474 -.001 16.5 units box
region 		2 block -.001 ${xdim} -.001 ${ydim} 16.5 36.5808 units box
region 		2 block -.001 50.0920670213607 -.001 ${ydim} 16.5 36.5808 units box
region 		2 block -.001 50.0920670213607 -.001 28.9206683790474 16.5 36.5808 units box
region		whole block 0 ${xdim} 0 ${ydim} 0 36.5808 units box
region		whole block 0 50.0920670213607 0 ${ydim} 0 36.5808 units box
region		whole block 0 50.0920670213607 0 28.9206683790474 0 36.5808 units box
#the -.001 in the -x and -y and lower limit of region 1 are only to overcome a simple numerical issue but can be considered 0
create_box 	1 whole
Created orthogonal box = (0 0 0) to (50.092067 28.920668 36.5808)
  1 by 1 by 1 MPI processor grid
lattice 	fcc ${latparam1} orient x 1 1 2 orient y -1 1 0 orient z -1 -1 1
lattice 	fcc 4.09000014545435 orient x 1 1 2 orient y -1 1 0 orient z -1 -1 1
Lattice spacing in x,y,z = 6.6789423 5.7841337 7.0840881
create_atoms	1 region 1
Created 1400 atoms
  using lattice units in orthogonal box = (0 0 -0.00365808) to (50.092067 28.920668 36.584458)
  create_atoms CPU = 0.001 seconds
lattice 	fcc ${latparam1} orient x 1 1 2 orient y -1 1 0 orient z -1 -1 1
lattice 	fcc 4.09000014545435 orient x 1 1 2 orient y -1 1 0 orient z -1 -1 1
Lattice spacing in x,y,z = 6.6789423 5.7841337 7.0840881
create_atoms 	1 region 2
Created 1800 atoms
  using lattice units in orthogonal box = (0 0 -0.00365808) to (50.092067 28.920668 36.584458)
  create_atoms CPU = 0.001 seconds

# --------------------- FORCE FIELDS ---------------------
#Provide potential
pair_style      eam/alloy ### --> TYPE OF POTENTIAL (eam (OR) eam/alloy)
pair_coeff      *  *  CuAg.eam.alloy Ag  ### POTENTIAL FILENAME


# --------------------- SETTINGS ---------------------

fix 		1 all setforce 0 0 NULL
min_style 	cg
minimize 	0.0 1e-8 20000 20000
Neighbor list info ...
  update: every = 1 steps, delay = 0 steps, check = yes
  max neighbors/atom: 2000, page size: 100000
  master list distance cutoff = 7.995011
  ghost atom cutoff = 7.995011
  binsize = 3.9975055, bins = 13 8 10
  1 neighbor lists, perpetual/occasional/extra = 1 0 0
  (1) pair eam/alloy, perpetual
      attributes: half, newton on
      pair build: half/bin/atomonly/newton
      stencil: half/bin/3d
      bin: standard
Per MPI rank memory allocation (min/avg/max) = 5.411 | 5.411 | 5.411 Mbytes
   Step          Temp          E_pair         E_mol          TotEng         Press          Volume    
         0   0             -8963.0005      0             -8963.0005     -5973.3391      51324.051    
        30   0             -8964.0763      0             -8964.0763     -3443.7334      51324.051    
Loop time of 0.312681 on 1 procs for 30 steps with 3200 atoms

100.0% CPU use with 1 MPI tasks x no OpenMP threads

Minimization stats:
  Stopping criterion = linesearch alpha is zero
  Energy initial, next-to-last, final = 
     -8963.00049826424  -8964.07633391507  -8964.07633391507
  Force two-norm initial, final = 3.47643 4.9599618e-07
  Force max component initial, final = 0.12627393 1.6676942e-08
  Final line search alpha, max atom move = 0.5 8.3384712e-09
  Iterations, force evaluations = 30 60

MPI task timing breakdown:
Section |  min time  |  avg time  |  max time  |%varavg| %total
---------------------------------------------------------------
Pair    | 0.30796    | 0.30796    | 0.30796    |   0.0 | 98.49
Neigh   | 0          | 0          | 0          |   0.0 |  0.00
Comm    | 0.00098924 | 0.00098924 | 0.00098924 |   0.0 |  0.32
Output  | 0          | 0          | 0          |   0.0 |  0.00
Modify  | 0.00061444 | 0.00061444 | 0.00061444 |   0.0 |  0.20
Other   |            | 0.003123   |            |       |  1.00

Nlocal:           3200 ave        3200 max        3200 min
Histogram: 1 0 0 0 0 0 0 0 0 0
Nghost:           3344 ave        3344 max        3344 min
Histogram: 1 0 0 0 0 0 0 0 0 0
Neighs:         197600 ave      197600 max      197600 min
Histogram: 1 0 0 0 0 0 0 0 0 0

Total # of neighbors = 197600
Ave neighs/atom = 61.75
Neighbor list builds = 0
Dangerous builds = 0



compute 	peratom all pe/atom
compute 	eatoms all reduce sum c_peratom
compute 	csym all centro/atom fcc
thermo 		10
thermo_style 	custom step temp pe c_eatoms pxx pyy pzz lx ly lz fnorm
dump 		1 all custom 1 dump.relax.1.* id type xs ys zs c_peratom c_csym
run 0
WARNING: No fixes with time integration, atoms won't move (../verlet.cpp:60)
Neighbor list info ...
  update: every = 1 steps, delay = 0 steps, check = yes
  max neighbors/atom: 2000, page size: 100000
  master list distance cutoff = 7.995011
  ghost atom cutoff = 7.995011
  binsize = 3.9975055, bins = 13 8 9
  2 neighbor lists, perpetual/occasional/extra = 1 1 0
  (1) pair eam/alloy, perpetual
      attributes: half, newton on
      pair build: half/bin/atomonly/newton
      stencil: half/bin/3d
      bin: standard
  (2) compute centro/atom, occasional
      attributes: full, newton on
      pair build: full/bin/atomonly
      stencil: full/bin/3d
      bin: standard
Per MPI rank memory allocation (min/avg/max) = 5.042 | 5.042 | 5.042 Mbytes
   Step          Temp          PotEng        c_eatoms         Pxx            Pyy            Pzz             Lx             Ly             Lz           Fnorm     
        30   0             -8964.0763     -8964.0763     -5177.9056     -5177.9056     -0.0070721536   50.092067      28.920668      35.343537      4.9599618e-07
Loop time of 1.08e-06 on 1 procs for 0 steps with 3200 atoms

185.2% CPU use with 1 MPI tasks x no OpenMP threads

MPI task timing breakdown:
Section |  min time  |  avg time  |  max time  |%varavg| %total
---------------------------------------------------------------
Pair    | 0          | 0          | 0          |   0.0 |  0.00
Neigh   | 0          | 0          | 0          |   0.0 |  0.00
Comm    | 0          | 0          | 0          |   0.0 |  0.00
Output  | 0          | 0          | 0          |   0.0 |  0.00
Modify  | 0          | 0          | 0          |   0.0 |  0.00
Other   |            | 1.08e-06   |            |       |100.00

Nlocal:           3200 ave        3200 max        3200 min
Histogram: 1 0 0 0 0 0 0 0 0 0
Nghost:           3344 ave        3344 max        3344 min
Histogram: 1 0 0 0 0 0 0 0 0 0
Neighs:         197600 ave      197600 max      197600 min
Histogram: 1 0 0 0 0 0 0 0 0 0
FullNghs:       395200 ave      395200 max      395200 min
Histogram: 1 0 0 0 0 0 0 0 0 0

Total # of neighbors = 395200
Ave neighs/atom = 123.5
Neighbor list builds = 0
Dangerous builds = 0
#this command creates a model of the script before the displacement and minimization occur
variable 	E equal "c_eatoms"
variable 	Eo equal $E
variable 	Eo equal -8964.07633391985
#variable 	E equal "c_eatoms" computes the initial energy of the model before any sliding is done
#E is necessary to store the initial energy in Eo

group 		bot region 1
1400 atoms in group bot
group 		top region 2
1800 atoms in group top

displace_atoms 	top move ${x_displace} 0.0 0.0 units box
displace_atoms 	top move -0.333947113475738 0.0 0.0 units box
Displacing atoms ...

#displace_atoms is the command neccessary to move atoms into the next stacking arrangement (ie: A -> B)

fix 		1 all setforce 0 0 NULL
min_style 	cg
minimize 	0.0 1e-8 20000 20000
Per MPI rank memory allocation (min/avg/max) = 9.367 | 9.367 | 9.367 Mbytes
   Step          Temp          PotEng        c_eatoms         Pxx            Pyy            Pzz             Lx             Ly             Lz           Fnorm     
        30   0             -8960.0151     -8960.0151     -6666.387      -3795.9103      989.75458      50.092067      28.920668      35.343537      1.4841767    
        40   0             -8960.1728     -8960.1728     -6852.934      -4229.8994      182.3511       50.092067      28.920668      35.343537      0.063776577  
        50   0             -8960.1743     -8960.1743     -6928.7271     -4310.7794      1.9286538      50.092067      28.920668      35.343537      0.00020799892
        60   0             -8960.1743     -8960.1743     -6929.4687     -4311.56        0.18833581     50.092067      28.920668      35.343537      3.3186431e-05
        70   0             -8960.1743     -8960.1743     -6929.5389     -4311.6366      0.019442904    50.092067      28.920668      35.343537      2.3009375e-06
        80   0             -8960.1743     -8960.1743     -6929.5464     -4311.6445      0.0018095611   50.092067      28.920668      35.343537      1.9780903e-07
        90   0             -8960.1743     -8960.1743     -6929.5471     -4311.6453      0.0001482005   50.092067      28.920668      35.343537      3.3044692e-08
        96   0             -8960.1743     -8960.1743     -6929.5471     -4311.6453      2.8173729e-05  50.092067      28.920668      35.343537      9.2594495e-09
Loop time of 1.70984 on 1 procs for 66 steps with 3200 atoms

83.7% CPU use with 1 MPI tasks x no OpenMP threads

Minimization stats:
  Stopping criterion = force tolerance
  Energy initial, next-to-last, final = 
      -8960.0151408907   -8960.1742816859  -8960.17428168835
  Force two-norm initial, final = 1.4841767 9.2594495e-09
  Force max component initial, final = 0.074169391 2.6172771e-10
  Final line search alpha, max atom move = 1 2.6172771e-10
  Iterations, force evaluations = 66 131

MPI task timing breakdown:
Section |  min time  |  avg time  |  max time  |%varavg| %total
---------------------------------------------------------------
Pair    | 0.71006    | 0.71006    | 0.71006    |   0.0 | 41.53
Neigh   | 0          | 0          | 0          |   0.0 |  0.00
Comm    | 0.0022959  | 0.0022959  | 0.0022959  |   0.0 |  0.13
Output  | 0.97332    | 0.97332    | 0.97332    |   0.0 | 56.92
Modify  | 0.0013141  | 0.0013141  | 0.0013141  |   0.0 |  0.08
Other   |            | 0.02285    |            |       |  1.34

Nlocal:           3200 ave        3200 max        3200 min
Histogram: 1 0 0 0 0 0 0 0 0 0
Nghost:           3344 ave        3344 max        3344 min
Histogram: 1 0 0 0 0 0 0 0 0 0
Neighs:         198000 ave      198000 max      198000 min
Histogram: 1 0 0 0 0 0 0 0 0 0
FullNghs:       395200 ave      395200 max      395200 min
Histogram: 1 0 0 0 0 0 0 0 0 0

Total # of neighbors = 395200
Ave neighs/atom = 123.5
Neighbor list builds = 0
Dangerous builds = 0

displace_atoms 	all random ${atomjiggle} ${atomjiggle} ${atomjiggle} 87287 units box
displace_atoms 	all random 1e-05 ${atomjiggle} ${atomjiggle} 87287 units box
displace_atoms 	all random 1e-05 1e-05 ${atomjiggle} 87287 units box
displace_atoms 	all random 1e-05 1e-05 1e-05 87287 units box
Displacing atoms ...
minimize 	0.0 1e-8 20000 20000
Per MPI rank memory allocation (min/avg/max) = 9.367 | 9.367 | 9.367 Mbytes
   Step          Temp          PotEng        c_eatoms         Pxx            Pyy            Pzz             Lx             Ly             Lz           Fnorm     
        96   0             -8960.1743     -8960.1743     -6925.7999     -4309.3211      0.002779047    50.092067      28.920668      35.362619      0.001811768  
       100   0             -8960.1743     -8960.1743     -6925.8135     -4309.3267     -0.014461296    50.092067      28.920668      35.362619      6.6176269e-05
       110   0             -8960.1743     -8960.1743     -6925.8104     -4309.3231     -0.0066878742   50.092067      28.920668      35.362619      4.5119242e-06
       120   0             -8960.1743     -8960.1743     -6925.8076     -4309.32        0.00011265874  50.092067      28.920668      35.362619      1.0176881e-06
       130   0             -8960.1743     -8960.1743     -6925.8072     -4309.3197      0.00088682158  50.092067      28.920668      35.362619      4.6103115e-07
       140   0             -8960.1743     -8960.1743     -6925.8076     -4309.32        0.00012196814  50.092067      28.920668      35.362619      7.4419227e-08
       148   0             -8960.1743     -8960.1743     -6925.8076     -4309.3201      1.6167592e-05  50.092067      28.920668      35.362619      8.473841e-09 
Loop time of 1.40206 on 1 procs for 52 steps with 3200 atoms

83.3% CPU use with 1 MPI tasks x no OpenMP threads

Minimization stats:
  Stopping criterion = force tolerance
  Energy initial, next-to-last, final = 
     -8960.17427481177  -8960.17427510508  -8960.17427510525
  Force two-norm initial, final = 0.001811768 8.473841e-09
  Force max component initial, final = 9.5919257e-05 5.4937127e-10
  Final line search alpha, max atom move = 1 5.4937127e-10
  Iterations, force evaluations = 52 104

MPI task timing breakdown:
Section |  min time  |  avg time  |  max time  |%varavg| %total
---------------------------------------------------------------
Pair    | 0.58237    | 0.58237    | 0.58237    |   0.0 | 41.54
Neigh   | 0          | 0          | 0          |   0.0 |  0.00
Comm    | 0.0018889  | 0.0018889  | 0.0018889  |   0.0 |  0.13
Output  | 0.79444    | 0.79444    | 0.79444    |   0.0 | 56.66
Modify  | 0.0010522  | 0.0010522  | 0.0010522  |   0.0 |  0.08
Other   |            | 0.02232    |            |       |  1.59

Nlocal:           3200 ave        3200 max        3200 min
Histogram: 1 0 0 0 0 0 0 0 0 0
Nghost:           3344 ave        3344 max        3344 min
Histogram: 1 0 0 0 0 0 0 0 0 0
Neighs:         198000 ave      198000 max      198000 min
Histogram: 1 0 0 0 0 0 0 0 0 0
FullNghs:       396000 ave      396000 max      396000 min
Histogram: 1 0 0 0 0 0 0 0 0 0

Total # of neighbors = 396000
Ave neighs/atom = 123.75
Neighbor list builds = 0
Dangerous builds = 0


variable 	Ef equal "c_eatoms"
variable	Cf equal 1.60217657e-16
variable 	A equal (${xdim}*${ydim})*1e-20
variable 	A equal (50.0920670213607*${ydim})*1e-20
variable 	A equal (50.0920670213607*28.9206683790474)*1e-20
variable 	SFE equal ((${Ef}-${Eo})*${Cf})/${A}
variable 	SFE equal ((-8960.17427510502-${Eo})*${Cf})/${A}
variable 	SFE equal ((-8960.17427510502--8964.07633391985)*${Cf})/${A}
variable 	SFE equal ((-8960.17427510502--8964.07633391985)*1.60217657e-16)/${A}
variable 	SFE equal ((-8960.17427510502--8964.07633391985)*1.60217657e-16)/1.44869605874579e-17

#variable 	Ef equal "c_eatoms" computes the final energy of the system after sliding is done
#variable 	A is the area of the Stacking fault plane
#variable 	Cf is the conversion factor of electro volts to millijoules
#variable 	SFE is the stacking-fault energy of the system

####################################
# SIMULATION DONE
print "All done"
All done
print "Initial energy of atoms = ${Eo} eV"
Initial energy of atoms = -8964.07633391985 eV
print "Final energy of atoms = ${Ef} eV"
Final energy of atoms = -8960.17427510502 eV
print "displacement and Stacking-fault energy = ${x_displace} ${Bx_displace} ${SFE}" # in SFE in mJ/m^2"
displacement and Stacking-fault energy = -0.333947113475738 0.2 43.1545814606068


next 		i
jump		SFE_displacement1.lmpin
#####################################################################################################################
# Course: Theory, Modelling, and Simulation of Microstructures (TMS)
# Tutors: Dr. Arun Prakash
# Description: Input file for computing Stack Fault Energy (SFE)
# Originally created by Richard Glaze, 2014. Modified by S. Roy, 2018
######################################################################################################################

# --------------------- INITIALIZAITION ---------------------

variable	Ndiscrt equal 30
variable    	i loop ${Ndiscrt}
variable    	i loop 30
label       	loop

clear
units		metal
dimension	3
boundary	p p s
atom_style	atomic
variable 	latparam1 equal 4.09000014545435
variable 	x_displace equal -1*(${latparam1}/sqrt(6)*${i}/${Ndiscrt}*2.0)
variable 	x_displace equal -1*(4.09000014545435/sqrt(6)*${i}/${Ndiscrt}*2.0)
variable 	x_displace equal -1*(4.09000014545435/sqrt(6)*4/${Ndiscrt}*2.0)
variable 	x_displace equal -1*(4.09000014545435/sqrt(6)*4/30*2.0)
variable 	xdim equal ${latparam1}*sqrt(6)/2*10
variable 	xdim equal 4.09000014545435*sqrt(6)/2*10
variable 	ydim equal ${latparam1}*sqrt(2)/2*10
variable 	ydim equal 4.09000014545435*sqrt(2)/2*10
variable 	atomjiggle equal 1.0e-5
variable 	Bx_displace equal ${i}/${Ndiscrt}*2.0
variable 	Bx_displace equal 4/${Ndiscrt}*2.0
variable 	Bx_displace equal 4/30*2.0

# --------------------- ATOM DEFINITION ---------------------
lattice		fcc ${latparam1}
lattice		fcc 4.09000014545435
Lattice spacing in x,y,z = 4.0900001 4.0900001 4.0900001
region		1 block -.001 ${xdim} -.001 ${ydim} -.001 16.5 units box
region		1 block -.001 50.0920670213607 -.001 ${ydim} -.001 16.5 units box
region		1 block -.001 50.0920670213607 -.001 28.9206683790474 -.001 16.5 units box
region 		2 block -.001 ${xdim} -.001 ${ydim} 16.5 36.5808 units box
region 		2 block -.001 50.0920670213607 -.001 ${ydim} 16.5 36.5808 units box
region 		2 block -.001 50.0920670213607 -.001 28.9206683790474 16.5 36.5808 units box
region		whole block 0 ${xdim} 0 ${ydim} 0 36.5808 units box
region		whole block 0 50.0920670213607 0 ${ydim} 0 36.5808 units box
region		whole block 0 50.0920670213607 0 28.9206683790474 0 36.5808 units box
#the -.001 in the -x and -y and lower limit of region 1 are only to overcome a simple numerical issue but can be considered 0
create_box 	1 whole
Created orthogonal box = (0 0 0) to (50.092067 28.920668 36.5808)
  1 by 1 by 1 MPI processor grid
lattice 	fcc ${latparam1} orient x 1 1 2 orient y -1 1 0 orient z -1 -1 1
lattice 	fcc 4.09000014545435 orient x 1 1 2 orient y -1 1 0 orient z -1 -1 1
Lattice spacing in x,y,z = 6.6789423 5.7841337 7.0840881
create_atoms	1 region 1
Created 1400 atoms
  using lattice units in orthogonal box = (0 0 -0.00365808) to (50.092067 28.920668 36.584458)
  create_atoms CPU = 0.001 seconds
lattice 	fcc ${latparam1} orient x 1 1 2 orient y -1 1 0 orient z -1 -1 1
lattice 	fcc 4.09000014545435 orient x 1 1 2 orient y -1 1 0 orient z -1 -1 1
Lattice spacing in x,y,z = 6.6789423 5.7841337 7.0840881
create_atoms 	1 region 2
Created 1800 atoms
  using lattice units in orthogonal box = (0 0 -0.00365808) to (50.092067 28.920668 36.584458)
  create_atoms CPU = 0.001 seconds

# --------------------- FORCE FIELDS ---------------------
#Provide potential
pair_style      eam/alloy ### --> TYPE OF POTENTIAL (eam (OR) eam/alloy)
pair_coeff      *  *  CuAg.eam.alloy Ag  ### POTENTIAL FILENAME


# --------------------- SETTINGS ---------------------

fix 		1 all setforce 0 0 NULL
min_style 	cg
minimize 	0.0 1e-8 20000 20000
Neighbor list info ...
  update: every = 1 steps, delay = 0 steps, check = yes
  max neighbors/atom: 2000, page size: 100000
  master list distance cutoff = 7.995011
  ghost atom cutoff = 7.995011
  binsize = 3.9975055, bins = 13 8 10
  1 neighbor lists, perpetual/occasional/extra = 1 0 0
  (1) pair eam/alloy, perpetual
      attributes: half, newton on
      pair build: half/bin/atomonly/newton
      stencil: half/bin/3d
      bin: standard
Per MPI rank memory allocation (min/avg/max) = 5.411 | 5.411 | 5.411 Mbytes
   Step          Temp          E_pair         E_mol          TotEng         Press          Volume    
         0   0             -8963.0005      0             -8963.0005     -5973.3391      51324.051    
        30   0             -8964.0763      0             -8964.0763     -3443.7334      51324.051    
Loop time of 0.30758 on 1 procs for 30 steps with 3200 atoms

100.0% CPU use with 1 MPI tasks x no OpenMP threads

Minimization stats:
  Stopping criterion = linesearch alpha is zero
  Energy initial, next-to-last, final = 
     -8963.00049826424  -8964.07633391507  -8964.07633391507
  Force two-norm initial, final = 3.47643 4.9599618e-07
  Force max component initial, final = 0.12627393 1.6676942e-08
  Final line search alpha, max atom move = 0.5 8.3384712e-09
  Iterations, force evaluations = 30 60

MPI task timing breakdown:
Section |  min time  |  avg time  |  max time  |%varavg| %total
---------------------------------------------------------------
Pair    | 0.30284    | 0.30284    | 0.30284    |   0.0 | 98.46
Neigh   | 0          | 0          | 0          |   0.0 |  0.00
Comm    | 0.00097015 | 0.00097015 | 0.00097015 |   0.0 |  0.32
Output  | 0          | 0          | 0          |   0.0 |  0.00
Modify  | 0.00058324 | 0.00058324 | 0.00058324 |   0.0 |  0.19
Other   |            | 0.003187   |            |       |  1.04

Nlocal:           3200 ave        3200 max        3200 min
Histogram: 1 0 0 0 0 0 0 0 0 0
Nghost:           3344 ave        3344 max        3344 min
Histogram: 1 0 0 0 0 0 0 0 0 0
Neighs:         197600 ave      197600 max      197600 min
Histogram: 1 0 0 0 0 0 0 0 0 0

Total # of neighbors = 197600
Ave neighs/atom = 61.75
Neighbor list builds = 0
Dangerous builds = 0



compute 	peratom all pe/atom
compute 	eatoms all reduce sum c_peratom
compute 	csym all centro/atom fcc
thermo 		10
thermo_style 	custom step temp pe c_eatoms pxx pyy pzz lx ly lz fnorm
dump 		1 all custom 1 dump.relax.1.* id type xs ys zs c_peratom c_csym
run 0
WARNING: No fixes with time integration, atoms won't move (../verlet.cpp:60)
Neighbor list info ...
  update: every = 1 steps, delay = 0 steps, check = yes
  max neighbors/atom: 2000, page size: 100000
  master list distance cutoff = 7.995011
  ghost atom cutoff = 7.995011
  binsize = 3.9975055, bins = 13 8 9
  2 neighbor lists, perpetual/occasional/extra = 1 1 0
  (1) pair eam/alloy, perpetual
      attributes: half, newton on
      pair build: half/bin/atomonly/newton
      stencil: half/bin/3d
      bin: standard
  (2) compute centro/atom, occasional
      attributes: full, newton on
      pair build: full/bin/atomonly
      stencil: full/bin/3d
      bin: standard
Per MPI rank memory allocation (min/avg/max) = 5.042 | 5.042 | 5.042 Mbytes
   Step          Temp          PotEng        c_eatoms         Pxx            Pyy            Pzz             Lx             Ly             Lz           Fnorm     
        30   0             -8964.0763     -8964.0763     -5177.9056     -5177.9056     -0.0070721536   50.092067      28.920668      35.343537      4.9599618e-07
Loop time of 1.335e-06 on 1 procs for 0 steps with 3200 atoms

149.8% CPU use with 1 MPI tasks x no OpenMP threads

MPI task timing breakdown:
Section |  min time  |  avg time  |  max time  |%varavg| %total
---------------------------------------------------------------
Pair    | 0          | 0          | 0          |   0.0 |  0.00
Neigh   | 0          | 0          | 0          |   0.0 |  0.00
Comm    | 0          | 0          | 0          |   0.0 |  0.00
Output  | 0          | 0          | 0          |   0.0 |  0.00
Modify  | 0          | 0          | 0          |   0.0 |  0.00
Other   |            | 1.335e-06  |            |       |100.00

Nlocal:           3200 ave        3200 max        3200 min
Histogram: 1 0 0 0 0 0 0 0 0 0
Nghost:           3344 ave        3344 max        3344 min
Histogram: 1 0 0 0 0 0 0 0 0 0
Neighs:         197600 ave      197600 max      197600 min
Histogram: 1 0 0 0 0 0 0 0 0 0
FullNghs:       395200 ave      395200 max      395200 min
Histogram: 1 0 0 0 0 0 0 0 0 0

Total # of neighbors = 395200
Ave neighs/atom = 123.5
Neighbor list builds = 0
Dangerous builds = 0
#this command creates a model of the script before the displacement and minimization occur
variable 	E equal "c_eatoms"
variable 	Eo equal $E
variable 	Eo equal -8964.07633391985
#variable 	E equal "c_eatoms" computes the initial energy of the model before any sliding is done
#E is necessary to store the initial energy in Eo

group 		bot region 1
1400 atoms in group bot
group 		top region 2
1800 atoms in group top

displace_atoms 	top move ${x_displace} 0.0 0.0 units box
displace_atoms 	top move -0.445262817967651 0.0 0.0 units box
Displacing atoms ...

#displace_atoms is the command neccessary to move atoms into the next stacking arrangement (ie: A -> B)

fix 		1 all setforce 0 0 NULL
min_style 	cg
minimize 	0.0 1e-8 20000 20000
Per MPI rank memory allocation (min/avg/max) = 9.367 | 9.367 | 9.367 Mbytes
   Step          Temp          PotEng        c_eatoms         Pxx            Pyy            Pzz             Lx             Ly             Lz           Fnorm     
        30   0             -8957.7225     -8957.7225     -7091.2428     -3342.8416      1687.8995      50.092067      28.920668      35.343537      2.5092275    
        40   0             -8958.1132     -8958.1132     -7318.7734     -4107.5965      248.24594      50.092067      28.920668      35.343537      0.086853544  
        50   0             -8958.1165     -8958.1165     -7429.4353     -4220.47       -7.7636321      50.092067      28.920668      35.343537      0.0016396161 
        60   0             -8958.1165     -8958.1165     -7426.0195     -4216.9652      0.11141807     50.092067      28.920668      35.343537      1.1089887e-05
        70   0             -8958.1165     -8958.1165     -7426.0667     -4217.016      -0.0014213368   50.092067      28.920668      35.343537      2.0942609e-07
        79   0             -8958.1165     -8958.1165     -7426.066      -4217.0154      1.6599851e-05  50.092067      28.920668      35.343537      7.1086688e-09
Loop time of 1.26314 on 1 procs for 49 steps with 3200 atoms

83.0% CPU use with 1 MPI tasks x no OpenMP threads

Minimization stats:
  Stopping criterion = force tolerance
  Energy initial, next-to-last, final = 
     -8957.72251753483  -8958.11645665148  -8958.11645665412
  Force two-norm initial, final = 2.5092275 7.1086688e-09
  Force max component initial, final = 0.12540528 2.0828478e-10
  Final line search alpha, max atom move = 1 2.0828478e-10
  Iterations, force evaluations = 49 98

MPI task timing breakdown:
Section |  min time  |  avg time  |  max time  |%varavg| %total
---------------------------------------------------------------
Pair    | 0.52993    | 0.52993    | 0.52993    |   0.0 | 41.95
Neigh   | 0          | 0          | 0          |   0.0 |  0.00
Comm    | 0.0017914  | 0.0017914  | 0.0017914  |   0.0 |  0.14
Output  | 0.70957    | 0.70957    | 0.70957    |   0.0 | 56.18
Modify  | 0.00094936 | 0.00094936 | 0.00094936 |   0.0 |  0.08
Other   |            | 0.0209     |            |       |  1.65

Nlocal:           3200 ave        3200 max        3200 min
Histogram: 1 0 0 0 0 0 0 0 0 0
Nghost:           3389 ave        3389 max        3389 min
Histogram: 1 0 0 0 0 0 0 0 0 0
Neighs:         196800 ave      196800 max      196800 min
Histogram: 1 0 0 0 0 0 0 0 0 0
FullNghs:       395200 ave      395200 max      395200 min
Histogram: 1 0 0 0 0 0 0 0 0 0

Total # of neighbors = 395200
Ave neighs/atom = 123.5
Neighbor list builds = 0
Dangerous builds = 0

displace_atoms 	all random ${atomjiggle} ${atomjiggle} ${atomjiggle} 87287 units box
displace_atoms 	all random 1e-05 ${atomjiggle} ${atomjiggle} 87287 units box
displace_atoms 	all random 1e-05 1e-05 ${atomjiggle} 87287 units box
displace_atoms 	all random 1e-05 1e-05 1e-05 87287 units box
Displacing atoms ...
minimize 	0.0 1e-8 20000 20000
Per MPI rank memory allocation (min/avg/max) = 9.367 | 9.367 | 9.367 Mbytes
   Step          Temp          PotEng        c_eatoms         Pxx            Pyy            Pzz             Lx             Ly             Lz           Fnorm     
        79   0             -8958.1164     -8958.1164     -7420.0228     -4213.5612      0.051823558    50.092067      28.920668      35.372271      0.0018073261 
        80   0             -8958.1164     -8958.1164     -7420.024      -4213.5788      0.02500939     50.092067      28.920668      35.372271      0.00055392411
        90   0             -8958.1164     -8958.1164     -7420.0302     -4213.5822      0.015403466    50.092067      28.920668      35.372271      7.4868528e-06
       100   0             -8958.1164     -8958.1164     -7420.0359     -4213.588       0.0022413471   50.092067      28.920668      35.372271      1.356591e-06 
       110   0             -8958.1164     -8958.1164     -7420.0374     -4213.5896     -0.0012070372   50.092067      28.920668      35.372271      6.674671e-07 
       120   0             -8958.1164     -8958.1164     -7420.037      -4213.5892     -0.00040932664  50.092067      28.920668      35.372271      1.512801e-07 
       130   0             -8958.1164     -8958.1164     -7420.0369     -4213.5891     -2.1191281e-05  50.092067      28.920668      35.372271      9.6171362e-09
Loop time of 1.36717 on 1 procs for 51 steps with 3200 atoms

84.5% CPU use with 1 MPI tasks x no OpenMP threads

Minimization stats:
  Stopping criterion = force tolerance
  Energy initial, next-to-last, final = 
     -8958.11644093627  -8958.11644122461   -8958.1164412246
  Force two-norm initial, final = 0.0018073261 9.6171362e-09
  Force max component initial, final = 8.864241e-05 5.7358049e-10
  Final line search alpha, max atom move = 1 5.7358049e-10
  Iterations, force evaluations = 51 102

MPI task timing breakdown:
Section |  min time  |  avg time  |  max time  |%varavg| %total
---------------------------------------------------------------
Pair    | 0.56957    | 0.56957    | 0.56957    |   0.0 | 41.66
Neigh   | 0          | 0          | 0          |   0.0 |  0.00
Comm    | 0.0018782  | 0.0018782  | 0.0018782  |   0.0 |  0.14
Output  | 0.77321    | 0.77321    | 0.77321    |   0.0 | 56.56
Modify  | 0.0010316  | 0.0010316  | 0.0010316  |   0.0 |  0.08
Other   |            | 0.02148    |            |       |  1.57

Nlocal:           3200 ave        3200 max        3200 min
Histogram: 1 0 0 0 0 0 0 0 0 0
Nghost:           3389 ave        3389 max        3389 min
Histogram: 1 0 0 0 0 0 0 0 0 0
Neighs:         196800 ave      196800 max      196800 min
Histogram: 1 0 0 0 0 0 0 0 0 0
FullNghs:       393600 ave      393600 max      393600 min
Histogram: 1 0 0 0 0 0 0 0 0 0

Total # of neighbors = 393600
Ave neighs/atom = 123
Neighbor list builds = 0
Dangerous builds = 0


variable 	Ef equal "c_eatoms"
variable	Cf equal 1.60217657e-16
variable 	A equal (${xdim}*${ydim})*1e-20
variable 	A equal (50.0920670213607*${ydim})*1e-20
variable 	A equal (50.0920670213607*28.9206683790474)*1e-20
variable 	SFE equal ((${Ef}-${Eo})*${Cf})/${A}
variable 	SFE equal ((-8958.11644122448-${Eo})*${Cf})/${A}
variable 	SFE equal ((-8958.11644122448--8964.07633391985)*${Cf})/${A}
variable 	SFE equal ((-8958.11644122448--8964.07633391985)*1.60217657e-16)/${A}
variable 	SFE equal ((-8958.11644122448--8964.07633391985)*1.60217657e-16)/1.44869605874579e-17

#variable 	Ef equal "c_eatoms" computes the final energy of the system after sliding is done
#variable 	A is the area of the Stacking fault plane
#variable 	Cf is the conversion factor of electro volts to millijoules
#variable 	SFE is the stacking-fault energy of the system

####################################
# SIMULATION DONE
print "All done"
All done
print "Initial energy of atoms = ${Eo} eV"
Initial energy of atoms = -8964.07633391985 eV
print "Final energy of atoms = ${Ef} eV"
Final energy of atoms = -8958.11644122448 eV
print "displacement and Stacking-fault energy = ${x_displace} ${Bx_displace} ${SFE}" # in SFE in mJ/m^2"
displacement and Stacking-fault energy = -0.445262817967651 0.266666666666667 65.913069747025


next 		i
jump		SFE_displacement1.lmpin
#####################################################################################################################
# Course: Theory, Modelling, and Simulation of Microstructures (TMS)
# Tutors: Dr. Arun Prakash
# Description: Input file for computing Stack Fault Energy (SFE)
# Originally created by Richard Glaze, 2014. Modified by S. Roy, 2018
######################################################################################################################

# --------------------- INITIALIZAITION ---------------------

variable	Ndiscrt equal 30
variable    	i loop ${Ndiscrt}
variable    	i loop 30
label       	loop

clear
units		metal
dimension	3
boundary	p p s
atom_style	atomic
variable 	latparam1 equal 4.09000014545435
variable 	x_displace equal -1*(${latparam1}/sqrt(6)*${i}/${Ndiscrt}*2.0)
variable 	x_displace equal -1*(4.09000014545435/sqrt(6)*${i}/${Ndiscrt}*2.0)
variable 	x_displace equal -1*(4.09000014545435/sqrt(6)*5/${Ndiscrt}*2.0)
variable 	x_displace equal -1*(4.09000014545435/sqrt(6)*5/30*2.0)
variable 	xdim equal ${latparam1}*sqrt(6)/2*10
variable 	xdim equal 4.09000014545435*sqrt(6)/2*10
variable 	ydim equal ${latparam1}*sqrt(2)/2*10
variable 	ydim equal 4.09000014545435*sqrt(2)/2*10
variable 	atomjiggle equal 1.0e-5
variable 	Bx_displace equal ${i}/${Ndiscrt}*2.0
variable 	Bx_displace equal 5/${Ndiscrt}*2.0
variable 	Bx_displace equal 5/30*2.0

# --------------------- ATOM DEFINITION ---------------------
lattice		fcc ${latparam1}
lattice		fcc 4.09000014545435
Lattice spacing in x,y,z = 4.0900001 4.0900001 4.0900001
region		1 block -.001 ${xdim} -.001 ${ydim} -.001 16.5 units box
region		1 block -.001 50.0920670213607 -.001 ${ydim} -.001 16.5 units box
region		1 block -.001 50.0920670213607 -.001 28.9206683790474 -.001 16.5 units box
region 		2 block -.001 ${xdim} -.001 ${ydim} 16.5 36.5808 units box
region 		2 block -.001 50.0920670213607 -.001 ${ydim} 16.5 36.5808 units box
region 		2 block -.001 50.0920670213607 -.001 28.9206683790474 16.5 36.5808 units box
region		whole block 0 ${xdim} 0 ${ydim} 0 36.5808 units box
region		whole block 0 50.0920670213607 0 ${ydim} 0 36.5808 units box
region		whole block 0 50.0920670213607 0 28.9206683790474 0 36.5808 units box
#the -.001 in the -x and -y and lower limit of region 1 are only to overcome a simple numerical issue but can be considered 0
create_box 	1 whole
Created orthogonal box = (0 0 0) to (50.092067 28.920668 36.5808)
  1 by 1 by 1 MPI processor grid
lattice 	fcc ${latparam1} orient x 1 1 2 orient y -1 1 0 orient z -1 -1 1
lattice 	fcc 4.09000014545435 orient x 1 1 2 orient y -1 1 0 orient z -1 -1 1
Lattice spacing in x,y,z = 6.6789423 5.7841337 7.0840881
create_atoms	1 region 1
Created 1400 atoms
  using lattice units in orthogonal box = (0 0 -0.00365808) to (50.092067 28.920668 36.584458)
  create_atoms CPU = 0.001 seconds
lattice 	fcc ${latparam1} orient x 1 1 2 orient y -1 1 0 orient z -1 -1 1
lattice 	fcc 4.09000014545435 orient x 1 1 2 orient y -1 1 0 orient z -1 -1 1
Lattice spacing in x,y,z = 6.6789423 5.7841337 7.0840881
create_atoms 	1 region 2
Created 1800 atoms
  using lattice units in orthogonal box = (0 0 -0.00365808) to (50.092067 28.920668 36.584458)
  create_atoms CPU = 0.001 seconds

# --------------------- FORCE FIELDS ---------------------
#Provide potential
pair_style      eam/alloy ### --> TYPE OF POTENTIAL (eam (OR) eam/alloy)
pair_coeff      *  *  CuAg.eam.alloy Ag  ### POTENTIAL FILENAME


# --------------------- SETTINGS ---------------------

fix 		1 all setforce 0 0 NULL
min_style 	cg
minimize 	0.0 1e-8 20000 20000
Neighbor list info ...
  update: every = 1 steps, delay = 0 steps, check = yes
  max neighbors/atom: 2000, page size: 100000
  master list distance cutoff = 7.995011
  ghost atom cutoff = 7.995011
  binsize = 3.9975055, bins = 13 8 10
  1 neighbor lists, perpetual/occasional/extra = 1 0 0
  (1) pair eam/alloy, perpetual
      attributes: half, newton on
      pair build: half/bin/atomonly/newton
      stencil: half/bin/3d
      bin: standard
Per MPI rank memory allocation (min/avg/max) = 5.411 | 5.411 | 5.411 Mbytes
   Step          Temp          E_pair         E_mol          TotEng         Press          Volume    
         0   0             -8963.0005      0             -8963.0005     -5973.3391      51324.051    
        30   0             -8964.0763      0             -8964.0763     -3443.7334      51324.051    
Loop time of 0.299004 on 1 procs for 30 steps with 3200 atoms

100.0% CPU use with 1 MPI tasks x no OpenMP threads

Minimization stats:
  Stopping criterion = linesearch alpha is zero
  Energy initial, next-to-last, final = 
     -8963.00049826424  -8964.07633391507  -8964.07633391507
  Force two-norm initial, final = 3.47643 4.9599618e-07
  Force max component initial, final = 0.12627393 1.6676942e-08
  Final line search alpha, max atom move = 0.5 8.3384712e-09
  Iterations, force evaluations = 30 60

MPI task timing breakdown:
Section |  min time  |  avg time  |  max time  |%varavg| %total
---------------------------------------------------------------
Pair    | 0.29445    | 0.29445    | 0.29445    |   0.0 | 98.48
Neigh   | 0          | 0          | 0          |   0.0 |  0.00
Comm    | 0.0009581  | 0.0009581  | 0.0009581  |   0.0 |  0.32
Output  | 0          | 0          | 0          |   0.0 |  0.00
Modify  | 0.00056287 | 0.00056287 | 0.00056287 |   0.0 |  0.19
Other   |            | 0.003036   |            |       |  1.02

Nlocal:           3200 ave        3200 max        3200 min
Histogram: 1 0 0 0 0 0 0 0 0 0
Nghost:           3344 ave        3344 max        3344 min
Histogram: 1 0 0 0 0 0 0 0 0 0
Neighs:         197600 ave      197600 max      197600 min
Histogram: 1 0 0 0 0 0 0 0 0 0

Total # of neighbors = 197600
Ave neighs/atom = 61.75
Neighbor list builds = 0
Dangerous builds = 0



compute 	peratom all pe/atom
compute 	eatoms all reduce sum c_peratom
compute 	csym all centro/atom fcc
thermo 		10
thermo_style 	custom step temp pe c_eatoms pxx pyy pzz lx ly lz fnorm
dump 		1 all custom 1 dump.relax.1.* id type xs ys zs c_peratom c_csym
run 0
WARNING: No fixes with time integration, atoms won't move (../verlet.cpp:60)
Neighbor list info ...
  update: every = 1 steps, delay = 0 steps, check = yes
  max neighbors/atom: 2000, page size: 100000
  master list distance cutoff = 7.995011
  ghost atom cutoff = 7.995011
  binsize = 3.9975055, bins = 13 8 9
  2 neighbor lists, perpetual/occasional/extra = 1 1 0
  (1) pair eam/alloy, perpetual
      attributes: half, newton on
      pair build: half/bin/atomonly/newton
      stencil: half/bin/3d
      bin: standard
  (2) compute centro/atom, occasional
      attributes: full, newton on
      pair build: full/bin/atomonly
      stencil: full/bin/3d
      bin: standard
Per MPI rank memory allocation (min/avg/max) = 5.042 | 5.042 | 5.042 Mbytes
   Step          Temp          PotEng        c_eatoms         Pxx            Pyy            Pzz             Lx             Ly             Lz           Fnorm     
        30   0             -8964.0763     -8964.0763     -5177.9056     -5177.9056     -0.0070721536   50.092067      28.920668      35.343537      4.9599618e-07
Loop time of 1.179e-06 on 1 procs for 0 steps with 3200 atoms

169.6% CPU use with 1 MPI tasks x no OpenMP threads

MPI task timing breakdown:
Section |  min time  |  avg time  |  max time  |%varavg| %total
---------------------------------------------------------------
Pair    | 0          | 0          | 0          |   0.0 |  0.00
Neigh   | 0          | 0          | 0          |   0.0 |  0.00
Comm    | 0          | 0          | 0          |   0.0 |  0.00
Output  | 0          | 0          | 0          |   0.0 |  0.00
Modify  | 0          | 0          | 0          |   0.0 |  0.00
Other   |            | 1.179e-06  |            |       |100.00

Nlocal:           3200 ave        3200 max        3200 min
Histogram: 1 0 0 0 0 0 0 0 0 0
Nghost:           3344 ave        3344 max        3344 min
Histogram: 1 0 0 0 0 0 0 0 0 0
Neighs:         197600 ave      197600 max      197600 min
Histogram: 1 0 0 0 0 0 0 0 0 0
FullNghs:       395200 ave      395200 max      395200 min
Histogram: 1 0 0 0 0 0 0 0 0 0

Total # of neighbors = 395200
Ave neighs/atom = 123.5
Neighbor list builds = 0
Dangerous builds = 0
#this command creates a model of the script before the displacement and minimization occur
variable 	E equal "c_eatoms"
variable 	Eo equal $E
variable 	Eo equal -8964.07633391985
#variable 	E equal "c_eatoms" computes the initial energy of the model before any sliding is done
#E is necessary to store the initial energy in Eo

group 		bot region 1
1400 atoms in group bot
group 		top region 2
1800 atoms in group top

displace_atoms 	top move ${x_displace} 0.0 0.0 units box
displace_atoms 	top move -0.556578522459563 0.0 0.0 units box
Displacing atoms ...

#displace_atoms is the command neccessary to move atoms into the next stacking arrangement (ie: A -> B)

fix 		1 all setforce 0 0 NULL
min_style 	cg
minimize 	0.0 1e-8 20000 20000
Per MPI rank memory allocation (min/avg/max) = 9.367 | 9.367 | 9.367 Mbytes
   Step          Temp          PotEng        c_eatoms         Pxx            Pyy            Pzz             Lx             Ly             Lz           Fnorm     
        30   0             -8955.5007     -8955.5007     -7380.7612     -2927.8088      2438.1468      50.092067      28.920668      35.343537      3.6097234    
        40   0             -8956.2167     -8956.2167     -7521.5956     -3956.7669      492.52601      50.092067      28.920668      35.343537      0.15005522   
        50   0             -8956.224      -8956.224      -7731.3597     -4172.9823      7.8366808      50.092067      28.920668      35.343537      0.0011028531 
        60   0             -8956.224      -8956.224      -7734.6608     -4176.4825      0.013732087    50.092067      28.920668      35.343537      3.5484238e-05
        70   0             -8956.224      -8956.224      -7734.6634     -4176.4892      8.006948e-05   50.092067      28.920668      35.343537      6.592658e-07 
        80   0             -8956.224      -8956.224      -7734.6633     -4176.4892      0.0001107375   50.092067      28.920668      35.343537      2.3848516e-08
        82   0             -8956.224      -8956.224      -7734.6633     -4176.4893      3.1355872e-05  50.092067      28.920668      35.343537      8.3472719e-09
Loop time of 1.34981 on 1 procs for 52 steps with 3200 atoms

82.8% CPU use with 1 MPI tasks x no OpenMP threads

Minimization stats:
  Stopping criterion = force tolerance
  Energy initial, next-to-last, final = 
     -8955.50066405145  -8956.22404677571  -8956.22404676957
  Force two-norm initial, final = 3.6097234 8.3472719e-09
  Force max component initial, final = 0.18041251 2.9501195e-10
  Final line search alpha, max atom move = 1 2.9501195e-10
  Iterations, force evaluations = 52 104

MPI task timing breakdown:
Section |  min time  |  avg time  |  max time  |%varavg| %total
---------------------------------------------------------------
Pair    | 0.56244    | 0.56244    | 0.56244    |   0.0 | 41.67
Neigh   | 0          | 0          | 0          |   0.0 |  0.00
Comm    | 0.0017864  | 0.0017864  | 0.0017864  |   0.0 |  0.13
Output  | 0.76174    | 0.76174    | 0.76174    |   0.0 | 56.43
Modify  | 0.0010168  | 0.0010168  | 0.0010168  |   0.0 |  0.08
Other   |            | 0.02282    |            |       |  1.69

Nlocal:           3200 ave        3200 max        3200 min
Histogram: 1 0 0 0 0 0 0 0 0 0
Nghost:           3341 ave        3341 max        3341 min
Histogram: 1 0 0 0 0 0 0 0 0 0
Neighs:         196800 ave      196800 max      196800 min
Histogram: 1 0 0 0 0 0 0 0 0 0
FullNghs:       395200 ave      395200 max      395200 min
Histogram: 1 0 0 0 0 0 0 0 0 0

Total # of neighbors = 395200
Ave neighs/atom = 123.5
Neighbor list builds = 0
Dangerous builds = 0

displace_atoms 	all random ${atomjiggle} ${atomjiggle} ${atomjiggle} 87287 units box
displace_atoms 	all random 1e-05 ${atomjiggle} ${atomjiggle} 87287 units box
displace_atoms 	all random 1e-05 1e-05 ${atomjiggle} 87287 units box
displace_atoms 	all random 1e-05 1e-05 1e-05 87287 units box
Displacing atoms ...
minimize 	0.0 1e-8 20000 20000
Per MPI rank memory allocation (min/avg/max) = 9.367 | 9.367 | 9.367 Mbytes
   Step          Temp          PotEng        c_eatoms         Pxx            Pyy            Pzz             Lx             Ly             Lz           Fnorm     
        82   0             -8956.224      -8956.224      -7726.5002     -4172.0868     -0.017434723    50.092067      28.920668      35.380903      0.0018640497 
        90   0             -8956.224      -8956.224      -7726.4911     -4172.0722      0.01052232     50.092067      28.920668      35.380903      1.4582076e-05
       100   0             -8956.224      -8956.224      -7726.4948     -4172.0756      0.0025877879   50.092067      28.920668      35.380903      1.7380814e-06
       110   0             -8956.224      -8956.224      -7726.496      -4172.0768     -7.2973103e-05  50.092067      28.920668      35.380903      5.2721919e-07
       120   0             -8956.224      -8956.224      -7726.4962     -4172.0771     -0.00063866273  50.092067      28.920668      35.380903      1.592756e-07 
       130   0             -8956.224      -8956.224      -7726.496      -4172.0768     -5.5334243e-05  50.092067      28.920668      35.380903      2.618823e-08 
       134   0             -8956.224      -8956.224      -7726.496      -4172.0768     -1.9476949e-05  50.092067      28.920668      35.380903      9.1724486e-09
Loop time of 1.39807 on 1 procs for 52 steps with 3200 atoms

82.5% CPU use with 1 MPI tasks x no OpenMP threads

Minimization stats:
  Stopping criterion = force tolerance
  Energy initial, next-to-last, final = 
     -8956.22404728334  -8956.22404758912  -8956.22404758933
  Force two-norm initial, final = 0.0018640497 9.1724486e-09
  Force max component initial, final = 9.7413947e-05 6.5676496e-10
  Final line search alpha, max atom move = 1 6.5676496e-10
  Iterations, force evaluations = 52 104

MPI task timing breakdown:
Section |  min time  |  avg time  |  max time  |%varavg| %total
---------------------------------------------------------------
Pair    | 0.57749    | 0.57749    | 0.57749    |   0.0 | 41.31
Neigh   | 0          | 0          | 0          |   0.0 |  0.00
Comm    | 0.0018824  | 0.0018824  | 0.0018824  |   0.0 |  0.13
Output  | 0.79572    | 0.79572    | 0.79572    |   0.0 | 56.92
Modify  | 0.0010429  | 0.0010429  | 0.0010429  |   0.0 |  0.07
Other   |            | 0.02193    |            |       |  1.57

Nlocal:           3200 ave        3200 max        3200 min
[...]
       173   0             -8914.1512     -8914.1512     -9011.5417     -9000.1258     -1.5305627e-05  50.092067      28.920668      35.687972      8.4505876e-09
Loop time of 1.68814 on 1 procs for 59 steps with 3200 atoms

84.6% CPU use with 1 MPI tasks x no OpenMP threads

Minimization stats:
  Stopping criterion = force tolerance
  Energy initial, next-to-last, final = 
     -8914.15123313006   -8914.1512334379    -8914.151233438
  Force two-norm initial, final = 0.0019655089 8.4505876e-09
  Force max component initial, final = 0.00011778013 7.8538993e-10
  Final line search alpha, max atom move = 1 7.8538993e-10
  Iterations, force evaluations = 59 118

MPI task timing breakdown:
Section |  min time  |  avg time  |  max time  |%varavg| %total
---------------------------------------------------------------
Pair    | 0.70786    | 0.70786    | 0.70786    |   0.0 | 41.93
Neigh   | 0          | 0          | 0          |   0.0 |  0.00
Comm    | 0.0023413  | 0.0023413  | 0.0023413  |   0.0 |  0.14
Output  | 0.95329    | 0.95329    | 0.95329    |   0.0 | 56.47
Modify  | 0.0012815  | 0.0012815  | 0.0012815  |   0.0 |  0.08
Other   |            | 0.02336    |            |       |  1.38

Nlocal:           3200 ave        3200 max        3200 min
Histogram: 1 0 0 0 0 0 0 0 0 0
Nghost:           3344 ave        3344 max        3344 min
Histogram: 1 0 0 0 0 0 0 0 0 0
Neighs:         193600 ave      193600 max      193600 min
Histogram: 1 0 0 0 0 0 0 0 0 0
FullNghs:       387200 ave      387200 max      387200 min
Histogram: 1 0 0 0 0 0 0 0 0 0

Total # of neighbors = 387200
Ave neighs/atom = 121
Neighbor list builds = 0
Dangerous builds = 0


variable 	Ef equal "c_eatoms"
variable	Cf equal 1.60217657e-16
variable 	A equal (${xdim}*${ydim})*1e-20
variable 	A equal (50.0920670213607*${ydim})*1e-20
variable 	A equal (50.0920670213607*28.9206683790474)*1e-20
variable 	SFE equal ((${Ef}-${Eo})*${Cf})/${A}
variable 	SFE equal ((-8914.15123343797-${Eo})*${Cf})/${A}
variable 	SFE equal ((-8914.15123343797--8964.07633391985)*${Cf})/${A}
variable 	SFE equal ((-8914.15123343797--8964.07633391985)*1.60217657e-16)/${A}
variable 	SFE equal ((-8914.15123343797--8964.07633391985)*1.60217657e-16)/1.44869605874579e-17

#variable 	Ef equal "c_eatoms" computes the final energy of the system after sliding is done
#variable 	A is the area of the Stacking fault plane
#variable 	Cf is the conversion factor of electro volts to millijoules
#variable 	SFE is the stacking-fault energy of the system

####################################
# SIMULATION DONE
print "All done"
All done
print "Initial energy of atoms = ${Eo} eV"
Initial energy of atoms = -8964.07633391985 eV
print "Final energy of atoms = ${Ef} eV"
Final energy of atoms = -8914.15123343797 eV
print "displacement and Stacking-fault energy = ${x_displace} ${Bx_displace} ${SFE}" # in SFE in mJ/m^2"
displacement and Stacking-fault energy = -3.22815543026547 1.93333333333333 552.143603650126


next 		i
jump		SFE_displacement1.lmpin
#####################################################################################################################
# Course: Theory, Modelling, and Simulation of Microstructures (TMS)
# Tutors: Dr. Arun Prakash
# Description: Input file for computing Stack Fault Energy (SFE)
# Originally created by Richard Glaze, 2014. Modified by S. Roy, 2018
######################################################################################################################

# --------------------- INITIALIZAITION ---------------------

variable	Ndiscrt equal 30
variable    	i loop ${Ndiscrt}
variable    	i loop 30
label       	loop

clear
units		metal
dimension	3
boundary	p p s
atom_style	atomic
variable 	latparam1 equal 4.09000014545435
variable 	x_displace equal -1*(${latparam1}/sqrt(6)*${i}/${Ndiscrt}*2.0)
variable 	x_displace equal -1*(4.09000014545435/sqrt(6)*${i}/${Ndiscrt}*2.0)
variable 	x_displace equal -1*(4.09000014545435/sqrt(6)*30/${Ndiscrt}*2.0)
variable 	x_displace equal -1*(4.09000014545435/sqrt(6)*30/30*2.0)
variable 	xdim equal ${latparam1}*sqrt(6)/2*10
variable 	xdim equal 4.09000014545435*sqrt(6)/2*10
variable 	ydim equal ${latparam1}*sqrt(2)/2*10
variable 	ydim equal 4.09000014545435*sqrt(2)/2*10
variable 	atomjiggle equal 1.0e-5
variable 	Bx_displace equal ${i}/${Ndiscrt}*2.0
variable 	Bx_displace equal 30/${Ndiscrt}*2.0
variable 	Bx_displace equal 30/30*2.0

# --------------------- ATOM DEFINITION ---------------------
lattice		fcc ${latparam1}
lattice		fcc 4.09000014545435
Lattice spacing in x,y,z = 4.0900001 4.0900001 4.0900001
region		1 block -.001 ${xdim} -.001 ${ydim} -.001 16.5 units box
region		1 block -.001 50.0920670213607 -.001 ${ydim} -.001 16.5 units box
region		1 block -.001 50.0920670213607 -.001 28.9206683790474 -.001 16.5 units box
region 		2 block -.001 ${xdim} -.001 ${ydim} 16.5 36.5808 units box
region 		2 block -.001 50.0920670213607 -.001 ${ydim} 16.5 36.5808 units box
region 		2 block -.001 50.0920670213607 -.001 28.9206683790474 16.5 36.5808 units box
region		whole block 0 ${xdim} 0 ${ydim} 0 36.5808 units box
region		whole block 0 50.0920670213607 0 ${ydim} 0 36.5808 units box
region		whole block 0 50.0920670213607 0 28.9206683790474 0 36.5808 units box
#the -.001 in the -x and -y and lower limit of region 1 are only to overcome a simple numerical issue but can be considered 0
create_box 	1 whole
Created orthogonal box = (0 0 0) to (50.092067 28.920668 36.5808)
  1 by 1 by 1 MPI processor grid
lattice 	fcc ${latparam1} orient x 1 1 2 orient y -1 1 0 orient z -1 -1 1
lattice 	fcc 4.09000014545435 orient x 1 1 2 orient y -1 1 0 orient z -1 -1 1
Lattice spacing in x,y,z = 6.6789423 5.7841337 7.0840881
create_atoms	1 region 1
Created 1400 atoms
  using lattice units in orthogonal box = (0 0 -0.00365808) to (50.092067 28.920668 36.584458)
  create_atoms CPU = 0.001 seconds
lattice 	fcc ${latparam1} orient x 1 1 2 orient y -1 1 0 orient z -1 -1 1
lattice 	fcc 4.09000014545435 orient x 1 1 2 orient y -1 1 0 orient z -1 -1 1
Lattice spacing in x,y,z = 6.6789423 5.7841337 7.0840881
create_atoms 	1 region 2
Created 1800 atoms
  using lattice units in orthogonal box = (0 0 -0.00365808) to (50.092067 28.920668 36.584458)
  create_atoms CPU = 0.001 seconds

# --------------------- FORCE FIELDS ---------------------
#Provide potential
pair_style      eam/alloy ### --> TYPE OF POTENTIAL (eam (OR) eam/alloy)
pair_coeff      *  *  CuAg.eam.alloy Ag  ### POTENTIAL FILENAME


# --------------------- SETTINGS ---------------------

fix 		1 all setforce 0 0 NULL
min_style 	cg
minimize 	0.0 1e-8 20000 20000
Neighbor list info ...
  update: every = 1 steps, delay = 0 steps, check = yes
  max neighbors/atom: 2000, page size: 100000
  master list distance cutoff = 7.995011
  ghost atom cutoff = 7.995011
  binsize = 3.9975055, bins = 13 8 10
  1 neighbor lists, perpetual/occasional/extra = 1 0 0
  (1) pair eam/alloy, perpetual
      attributes: half, newton on
      pair build: half/bin/atomonly/newton
      stencil: half/bin/3d
      bin: standard
Per MPI rank memory allocation (min/avg/max) = 5.411 | 5.411 | 5.411 Mbytes
   Step          Temp          E_pair         E_mol          TotEng         Press          Volume    
         0   0             -8963.0005      0             -8963.0005     -5973.3391      51324.051    
        30   0             -8964.0763      0             -8964.0763     -3443.7334      51324.051    
Loop time of 0.324209 on 1 procs for 30 steps with 3200 atoms

99.7% CPU use with 1 MPI tasks x no OpenMP threads

Minimization stats:
  Stopping criterion = linesearch alpha is zero
  Energy initial, next-to-last, final = 
     -8963.00049826424  -8964.07633391507  -8964.07633391507
  Force two-norm initial, final = 3.47643 4.9599618e-07
  Force max component initial, final = 0.12627393 1.6676942e-08
  Final line search alpha, max atom move = 0.5 8.3384712e-09
  Iterations, force evaluations = 30 60

MPI task timing breakdown:
Section |  min time  |  avg time  |  max time  |%varavg| %total
---------------------------------------------------------------
Pair    | 0.31933    | 0.31933    | 0.31933    |   0.0 | 98.50
Neigh   | 0          | 0          | 0          |   0.0 |  0.00
Comm    | 0.0010492  | 0.0010492  | 0.0010492  |   0.0 |  0.32
Output  | 0          | 0          | 0          |   0.0 |  0.00
Modify  | 0.00064468 | 0.00064468 | 0.00064468 |   0.0 |  0.20
Other   |            | 0.003185   |            |       |  0.98

Nlocal:           3200 ave        3200 max        3200 min
Histogram: 1 0 0 0 0 0 0 0 0 0
Nghost:           3344 ave        3344 max        3344 min
Histogram: 1 0 0 0 0 0 0 0 0 0
Neighs:         197600 ave      197600 max      197600 min
Histogram: 1 0 0 0 0 0 0 0 0 0

Total # of neighbors = 197600
Ave neighs/atom = 61.75
Neighbor list builds = 0
Dangerous builds = 0



compute 	peratom all pe/atom
compute 	eatoms all reduce sum c_peratom
compute 	csym all centro/atom fcc
thermo 		10
thermo_style 	custom step temp pe c_eatoms pxx pyy pzz lx ly lz fnorm
dump 		1 all custom 1 dump.relax.1.* id type xs ys zs c_peratom c_csym
run 0
WARNING: No fixes with time integration, atoms won't move (../verlet.cpp:60)
Neighbor list info ...
  update: every = 1 steps, delay = 0 steps, check = yes
  max neighbors/atom: 2000, page size: 100000
  master list distance cutoff = 7.995011
  ghost atom cutoff = 7.995011
  binsize = 3.9975055, bins = 13 8 9
  2 neighbor lists, perpetual/occasional/extra = 1 1 0
  (1) pair eam/alloy, perpetual
      attributes: half, newton on
      pair build: half/bin/atomonly/newton
      stencil: half/bin/3d
      bin: standard
  (2) compute centro/atom, occasional
      attributes: full, newton on
      pair build: full/bin/atomonly
      stencil: full/bin/3d
      bin: standard
Per MPI rank memory allocation (min/avg/max) = 5.042 | 5.042 | 5.042 Mbytes
   Step          Temp          PotEng        c_eatoms         Pxx            Pyy            Pzz             Lx             Ly             Lz           Fnorm     
        30   0             -8964.0763     -8964.0763     -5177.9056     -5177.9056     -0.0070721536   50.092067      28.920668      35.343537      4.9599618e-07
Loop time of 1.235e-06 on 1 procs for 0 steps with 3200 atoms

242.9% CPU use with 1 MPI tasks x no OpenMP threads

MPI task timing breakdown:
Section |  min time  |  avg time  |  max time  |%varavg| %total
---------------------------------------------------------------
Pair    | 0          | 0          | 0          |   0.0 |  0.00
Neigh   | 0          | 0          | 0          |   0.0 |  0.00
Comm    | 0          | 0          | 0          |   0.0 |  0.00
Output  | 0          | 0          | 0          |   0.0 |  0.00
Modify  | 0          | 0          | 0          |   0.0 |  0.00
Other   |            | 1.235e-06  |            |       |100.00

Nlocal:           3200 ave        3200 max        3200 min
Histogram: 1 0 0 0 0 0 0 0 0 0
Nghost:           3344 ave        3344 max        3344 min
Histogram: 1 0 0 0 0 0 0 0 0 0
Neighs:         197600 ave      197600 max      197600 min
Histogram: 1 0 0 0 0 0 0 0 0 0
FullNghs:       395200 ave      395200 max      395200 min
Histogram: 1 0 0 0 0 0 0 0 0 0

Total # of neighbors = 395200
Ave neighs/atom = 123.5
Neighbor list builds = 0
Dangerous builds = 0
#this command creates a model of the script before the displacement and minimization occur
variable 	E equal "c_eatoms"
variable 	Eo equal $E
variable 	Eo equal -8964.07633391985
#variable 	E equal "c_eatoms" computes the initial energy of the model before any sliding is done
#E is necessary to store the initial energy in Eo

group 		bot region 1
1400 atoms in group bot
group 		top region 2
1800 atoms in group top

displace_atoms 	top move ${x_displace} 0.0 0.0 units box
displace_atoms 	top move -3.33947113475738 0.0 0.0 units box
Displacing atoms ...

#displace_atoms is the command neccessary to move atoms into the next stacking arrangement (ie: A -> B)

fix 		1 all setforce 0 0 NULL
min_style 	cg
minimize 	0.0 1e-8 20000 20000
Per MPI rank memory allocation (min/avg/max) = 9.367 | 9.367 | 9.367 Mbytes
   Step          Temp          PotEng        c_eatoms         Pxx            Pyy            Pzz             Lx             Ly             Lz           Fnorm     
        30   0             -8818.0608     -8818.0608     -7213.4387     -7213.4387      43616.935      50.092067      28.920668      35.343537      57.896516    
        40   0             -8912.2853     -8912.2853     -4549.032      -4549.032       11505.509      50.092067      28.920668      35.343537      1.8224037    
        50   0             -8913.7727     -8913.7727     -8764.6982     -8764.6982      740.06696      50.092067      28.920668      35.343537      0.089370209  
        60   0             -8913.7784     -8913.7784     -9058.7163     -9058.7163      37.464242      50.092067      28.920668      35.343537      0.0051907943 
        70   0             -8913.7784     -8913.7784     -9073.2777     -9073.2777      2.9798821      50.092067      28.920668      35.343537      0.00095984758
        80   0             -8913.7784     -8913.7784     -9074.1942     -9074.1942      0.20004083     50.092067      28.920668      35.343537      6.4286756e-05
        90   0             -8913.7784     -8913.7784     -9074.2828     -9074.2828      0.014330178    50.092067      28.920668      35.343537      2.8787306e-06
       100   0             -8913.7784     -8913.7784     -9074.2889     -9074.2889      0.0013875555   50.092067      28.920668      35.343537      1.2810231e-07
       109   0             -8913.7784     -8913.7784     -9074.2894     -9074.2894      6.8136164e-05  50.092067      28.920668      35.343537      8.6297033e-09
Loop time of 2.10364 on 1 procs for 79 steps with 3200 atoms

83.8% CPU use with 1 MPI tasks x no OpenMP threads

Minimization stats:
  Stopping criterion = force tolerance
  Energy initial, next-to-last, final = 
     -8818.06078614425   -8913.7784079299  -8913.77840793363
  Force two-norm initial, final = 57.896516 8.6297033e-09
  Force max component initial, final = 2.8947689 3.3330046e-10
  Final line search alpha, max atom move = 1 3.3330046e-10
  Iterations, force evaluations = 79 157

MPI task timing breakdown:
Section |  min time  |  avg time  |  max time  |%varavg| %total
---------------------------------------------------------------
Pair    | 0.87121    | 0.87121    | 0.87121    |   0.0 | 41.41
Neigh   | 0          | 0          | 0          |   0.0 |  0.00
Comm    | 0.0029487  | 0.0029487  | 0.0029487  |   0.0 |  0.14
Output  | 1.2012     | 1.2012     | 1.2012     |   0.0 | 57.10
Modify  | 0.0016921  | 0.0016921  | 0.0016921  |   0.0 |  0.08
Other   |            | 0.02658    |            |       |  1.26

Nlocal:           3200 ave        3200 max        3200 min
Histogram: 1 0 0 0 0 0 0 0 0 0
Nghost:           3344 ave        3344 max        3344 min
Histogram: 1 0 0 0 0 0 0 0 0 0
Neighs:         195400 ave      195400 max      195400 min
Histogram: 1 0 0 0 0 0 0 0 0 0
FullNghs:       395200 ave      395200 max      395200 min
Histogram: 1 0 0 0 0 0 0 0 0 0

Total # of neighbors = 395200
Ave neighs/atom = 123.5
Neighbor list builds = 0
Dangerous builds = 0

displace_atoms 	all random ${atomjiggle} ${atomjiggle} ${atomjiggle} 87287 units box
displace_atoms 	all random 1e-05 ${atomjiggle} ${atomjiggle} 87287 units box
displace_atoms 	all random 1e-05 1e-05 ${atomjiggle} 87287 units box
displace_atoms 	all random 1e-05 1e-05 1e-05 87287 units box
Displacing atoms ...
minimize 	0.0 1e-8 20000 20000
Per MPI rank memory allocation (min/avg/max) = 9.367 | 9.367 | 9.367 Mbytes
   Step          Temp          PotEng        c_eatoms         Pxx            Pyy            Pzz             Lx             Ly             Lz           Fnorm     
       109   0             -8913.7784     -8913.7784     -8986.0478     -8986.0519     -0.014202916    50.092067      28.920668      35.690498      0.0019760155 
       110   0             -8913.7784     -8913.7784     -8986.0712     -8986.0753      0.032624224    50.092067      28.920668      35.690498      0.000732852  
       120   0             -8913.7784     -8913.7784     -8986.0732     -8986.0773      0.00025931686  50.092067      28.920668      35.690498      1.0700689e-05
       130   0             -8913.7784     -8913.7784     -8986.0728     -8986.0769      0.00013680704  50.092067      28.920668      35.690498      1.6427474e-06
       140   0             -8913.7784     -8913.7784     -8986.0728     -8986.0769     -4.4160338e-05  50.092067      28.920668      35.690498      6.1553525e-07
       150   0             -8913.7784     -8913.7784     -8986.0728     -8986.0769     -5.3208663e-05  50.092067      28.920668      35.690498      2.0630142e-07
       160   0             -8913.7784     -8913.7784     -8986.0728     -8986.0769     -1.1699774e-05  50.092067      28.920668      35.690498      3.567762e-08 
       167   0             -8913.7784     -8913.7784     -8986.0728     -8986.0769      1.5754215e-07  50.092067      28.920668      35.690498      8.3332973e-09
Loop time of 1.71582 on 1 procs for 58 steps with 3200 atoms

85.5% CPU use with 1 MPI tasks x no OpenMP threads

Minimization stats:
  Stopping criterion = force tolerance
  Energy initial, next-to-last, final = 
     -8913.77840716128   -8913.7784074713  -8913.77840747127
  Force two-norm initial, final = 0.0019760155 8.3332973e-09
  Force max component initial, final = 0.00010616877 7.7383847e-10
  Final line search alpha, max atom move = 1 7.7383847e-10
  Iterations, force evaluations = 58 116

MPI task timing breakdown:
Section |  min time  |  avg time  |  max time  |%varavg| %total
---------------------------------------------------------------
Pair    | 0.72106    | 0.72106    | 0.72106    |   0.0 | 42.02
Neigh   | 0          | 0          | 0          |   0.0 |  0.00
Comm    | 0.0023441  | 0.0023441  | 0.0023441  |   0.0 |  0.14
Output  | 0.9673     | 0.9673     | 0.9673     |   0.0 | 56.38
Modify  | 0.0012955  | 0.0012955  | 0.0012955  |   0.0 |  0.08
Other   |            | 0.02382    |            |       |  1.39

Nlocal:           3200 ave        3200 max        3200 min
Histogram: 1 0 0 0 0 0 0 0 0 0
Nghost:           3344 ave        3344 max        3344 min
Histogram: 1 0 0 0 0 0 0 0 0 0
Neighs:         193600 ave      193600 max      193600 min
Histogram: 1 0 0 0 0 0 0 0 0 0
FullNghs:       387200 ave      387200 max      387200 min
Histogram: 1 0 0 0 0 0 0 0 0 0

Total # of neighbors = 387200
Ave neighs/atom = 121
Neighbor list builds = 0
Dangerous builds = 0


variable 	Ef equal "c_eatoms"
variable	Cf equal 1.60217657e-16
variable 	A equal (${xdim}*${ydim})*1e-20
variable 	A equal (50.0920670213607*${ydim})*1e-20
variable 	A equal (50.0920670213607*28.9206683790474)*1e-20
variable 	SFE equal ((${Ef}-${Eo})*${Cf})/${A}
variable 	SFE equal ((-8913.7784074714-${Eo})*${Cf})/${A}
variable 	SFE equal ((-8913.7784074714--8964.07633391985)*${Cf})/${A}
variable 	SFE equal ((-8913.7784074714--8964.07633391985)*1.60217657e-16)/${A}
variable 	SFE equal ((-8913.7784074714--8964.07633391985)*1.60217657e-16)/1.44869605874579e-17

#variable 	Ef equal "c_eatoms" computes the final energy of the system after sliding is done
#variable 	A is the area of the Stacking fault plane
#variable 	Cf is the conversion factor of electro volts to millijoules
#variable 	SFE is the stacking-fault energy of the system

####################################
# SIMULATION DONE
print "All done"
All done
print "Initial energy of atoms = ${Eo} eV"
Initial energy of atoms = -8964.07633391985 eV
print "Final energy of atoms = ${Ef} eV"
Final energy of atoms = -8913.7784074714 eV
print "displacement and Stacking-fault energy = ${x_displace} ${Bx_displace} ${SFE}" # in SFE in mJ/m^2"
displacement and Stacking-fault energy = -3.33947113475738 2 556.266849687272


next 		i
jump		SFE_displacement1.lmpin
#label 		break
Total wall time: 0:01:50
