ITEM: TIMESTEP
146
ITEM: NUMBER OF ATOMS
3200
ITEM: BOX BOUNDS pp pp ss
0.0000000000000000e+00 5.0092067021360698e+01
0.0000000000000000e+00 2.8920668379047399e+01
-1.5671243861047840e-01 3.5533785112952430e+01
ITEM: ATOMS id type xs ys zs c_peratom c_csym
1 1 1.55566e-07 0.0999997 0.000102768 -2.4771 24.5082
2 1 0.0166667 0.0500003 0.0651006 -2.83187 0.00500482
5 1 0.0499998 0.0500001 0.000102724 -2.4771 24.5083
45 1 0.0666666 0.0999999 0.0651006 -2.83187 0.00500481
48 1 0.0666665 1.55797e-07 0.0651004 -2.83187 0.00500684
49 1 0.0999999 1.02684e-07 0.000102677 -2.4771 24.5084
50 1 0.116667 0.0499997 0.0651005 -2.83187 0.00500604
66 1 0.0999998 0.0999999 0.000102798 -2.4771 24.5083
67 1 0.15 0.0500002 0.000102918 -2.4771 24.5082
178 1 0.166667 0.1 0.0651004 -2.83187 0.00500709
179 1 0.2 0.1 0.000102747 -2.4771 24.5082
180 1 0.216667 0.0500002 0.0651004 -2.83187 0.00500576
182 1 0.2 1.84467e-07 0.000102792 -2.4771 24.5082
183 1 0.25 0.0500001 0.000102636 -2.4771 24.5084
304 1 0.266667 0.0999997 0.0651003 -2.83187 0.00500778
307 1 0.266666 3.81866e-09 0.0651004 -2.83187 0.00500591
308 1 0.3 7.36748e-08 0.000102817 -2.4771 24.5083
309 1 0.316666 0.0499998 0.0651006 -2.83187 0.00500484
335 1 0.3 0.0999999 0.000102787 -2.4771 24.5083
336 1 0.35 0.0499997 0.000102964 -2.4771 24.5081
458 1 0.366667 0.0999999 0.0651004 -2.83187 0.00500729
459 1 0.4 0.1 0.000102714 -2.4771 24.5084
460 1 0.416666 0.0500002 0.0651006 -2.83187 0.00500405
462 1 0.4 2.26768e-07 0.000102807 -2.4771 24.5083
463 1 0.45 0.05 0.00010293 -2.4771 24.5081
584 1 0.466667 0.1 0.0651005 -2.83187 0.00500525
588 1 0.5 7.99778e-08 0.000102704 -2.4771 24.5084
615 1 0.5 0.0999999 0.000102881 -2.4771 24.5082
589 1 0.516667 0.0499997 0.0651004 -2.83187 0.00500656
616 1 0.55 0.0500002 0.000102798 -2.4771 24.5083
715 1 0.566667 1.20563e-09 0.0651004 -2.83187 0.00500726
738 1 0.566667 0.1 0.0651005 -2.83187 0.00500567
739 1 0.6 0.1 0.000102918 -2.4771 24.5081
740 1 0.616667 0.0500001 0.0651004 -2.83187 0.00500667
743 1 0.65 0.05 0.000102666 -2.4771 24.5085
864 1 0.666667 0.1 0.0651003 -2.83187 0.00500672
867 1 0.666667 6.82114e-08 0.0651004 -2.83187 0.00500589
869 1 0.716667 0.0499999 0.0651004 -2.83187 0.00500601
895 1 0.7 0.1 0.000102736 -2.4771 24.5083
896 1 0.75 0.0500003 0.000102854 -2.4771 24.5081
1018 1 0.766667 0.1 0.0651004 -2.83187 0.00500731
1019 1 0.8 0.0999999 0.00010281 -2.4771 24.5082
1020 1 0.816667 0.05 0.0651006 -2.83187 0.00500432
1023 1 0.85 0.0499997 0.000102702 -2.4771 24.5083
1144 1 0.866667 0.1 0.0651004 -2.83187 0.00500718
1147 1 0.866667 2.39766e-07 0.0651005 -2.83187 0.00500481
1148 1 0.9 9.55149e-08 0.000102848 -2.4771 24.5082
1149 1 0.916667 0.0499998 0.0651004 -2.83187 0.00500637
1175 1 0.9 0.1 0.000102865 -2.4771 24.5081
4 1 1 3.22296e-08 0.000102858 -2.4771 24.5082
1176 1 0.95 0.0499998 0.000102729 -2.4771 24.5083
1275 1 0.966667 5.9967e-08 0.0651004 -2.83187 0.00500687
1298 1 0.966667 0.0999997 0.0651004 -2.83187 0.00500804
3 1 0.0166665 0.15 0.0651004 -2.83187 0.00500679
7 1 0.0166668 0.25 0.0651004 -2.83187 0.00500659
10 1 0.05 0.15 0.000102802 -2.4771 24.5082
11 1 0.05 0.25 0.000102705 -2.4771 24.5084
62 1 0.0666665 0.2 0.0651004 -2.83187 0.00500763
63 1 0.1 0.2 0.000102824 -2.4771 24.5082
64 1 0.116667 0.15 0.0651004 -2.83187 0.00500604
65 1 0.116667 0.25 0.0651005 -2.83187 0.00500519
68 1 0.15 0.15 0.00010278 -2.4771 24.5084
85 1 0.15 0.25 0.000102954 -2.4771 24.508
175 1 0.166667 0.2 0.0651005 -2.83187 0.00500486
181 1 0.216667 0.15 0.0651005 -2.83187 0.00500531
207 1 0.216667 0.25 0.0651003 -2.83187 0.00500817
209 1 0.2 0.2 0.00010276 -2.4771 24.5083
210 1 0.25 0.15 0.000102699 -2.4771 24.5083
211 1 0.25 0.25 0.000102777 -2.4771 24.5082
331 1 0.266667 0.2 0.0651004 -2.83187 0.00500576
332 1 0.3 0.2 0.00010269 -2.4771 24.5084
333 1 0.316667 0.15 0.0651004 -2.83187 0.00500669
334 1 0.316667 0.25 0.0651003 -2.83187 0.00500661
337 1 0.35 0.15 0.000102831 -2.4771 24.5082
363 1 0.35 0.25 0.000102778 -2.4771 24.5083
455 1 0.366667 0.2 0.0651004 -2.83187 0.00500573
461 1 0.416667 0.15 0.0651004 -2.83187 0.00500586
489 1 0.4 0.2 0.000102694 -2.4771 24.5083
487 1 0.416667 0.25 0.0651004 -2.83187 0.00500606
490 1 0.45 0.15 0.000102677 -2.4771 24.5084
491 1 0.45 0.25 0.000102779 -2.4771 24.5083
611 1 0.466667 0.2 0.0651003 -2.83187 0.00500753
612 1 0.5 0.2 0.000102693 -2.4771 24.5084
613 1 0.516667 0.15 0.0651005 -2.83187 0.00500663
614 1 0.516667 0.25 0.0651005 -2.83187 0.00500516
617 1 0.55 0.15 0.000102711 -2.4771 24.5085
643 1 0.55 0.25 0.000102819 -2.4771 24.5082
735 1 0.566666 0.2 0.0651004 -2.83187 0.0050075
741 1 0.616667 0.15 0.0651004 -2.83187 0.00500659
767 1 0.616667 0.25 0.0651006 -2.83187 0.00500425
769 1 0.6 0.2 0.000102814 -2.4771 24.5083
770 1 0.65 0.15 0.000102637 -2.4771 24.5084
771 1 0.65 0.25 0.0001029 -2.4771 24.5082
891 1 0.666667 0.2 0.0651004 -2.83187 0.00500718
892 1 0.7 0.2 0.000102824 -2.4771 24.5081
893 1 0.716667 0.15 0.0651004 -2.83187 0.00500663
894 1 0.716667 0.25 0.0651005 -2.83187 0.00500516
897 1 0.75 0.15 0.000102823 -2.4771 24.5082
923 1 0.75 0.25 0.000102726 -2.4771 24.5082
1015 1 0.766667 0.2 0.0651004 -2.83187 0.00500647
1021 1 0.816667 0.15 0.0651004 -2.83187 0.00500594
1047 1 0.816667 0.25 0.0651004 -2.83187 0.00500676
1049 1 0.8 0.2 0.000102632 -2.4771 24.5084
1050 1 0.85 0.15 0.000102576 -2.4771 24.5086
1051 1 0.85 0.25 0.00010289 -2.4771 24.5082
1171 1 0.866667 0.2 0.0651005 -2.83187 0.00500574
1172 1 0.9 0.2 0.000102871 -2.4771 24.5082
9 1 1 0.2 0.000102671 -2.4771 24.5083
1173 1 0.916667 0.15 0.0651006 -2.83187 0.0050055
1174 1 0.916667 0.25 0.0651004 -2.83187 0.00500724
1177 1 0.95 0.15 0.000102891 -2.4771 24.5082
1203 1 0.95 0.25 0.000102848 -2.4771 24.5081
1295 1 0.966667 0.2 0.0651005 -2.83187 0.00500472
6 1 6.51908e-08 0.3 0.000102952 -2.4771 24.5081
8 1 0.0166665 0.35 0.0651005 -2.83187 0.00500583
16 1 0.05 0.35 0.000102997 -2.4771 24.5081
59 1 0.0666669 0.3 0.0651004 -2.83187 0.00500664
80 1 0.0666666 0.4 0.0651006 -2.83187 0.00500513
81 1 0.0999999 0.4 0.000102819 -2.4771 24.5082
82 1 0.116667 0.35 0.0651003 -2.83187 0.00500743
84 1 0.1 0.3 0.000102615 -2.4771 24.5085
86 1 0.15 0.35 0.000102748 -2.4771 24.5083
202 1 0.166667 0.4 0.0651004 -2.83187 0.00500607
205 1 0.166667 0.3 0.0651005 -2.83187 0.00500532
206 1 0.2 0.3 0.000102813 -2.4771 24.5082
208 1 0.216667 0.35 0.0651005 -2.83187 0.00500576
233 1 0.2 0.4 0.000102849 -2.4771 24.5082
234 1 0.25 0.35 0.000102685 -2.4771 24.5083
328 1 0.266667 0.3 0.0651004 -2.83187 0.00500652
358 1 0.266667 0.4 0.0651004 -2.83187 0.00500692
359 1 0.3 0.4 0.000102751 -2.4771 24.5082
360 1 0.316667 0.35 0.0651004 -2.83187 0.00500589
362 1 0.3 0.3 0.000102702 -2.4771 24.5082
364 1 0.35 0.35 0.000102827 -2.4771 24.5082
482 1 0.366667 0.4 0.0651005 -2.83187 0.00500523
485 1 0.366667 0.3 0.0651003 -2.83187 0.0050074
486 1 0.4 0.3 0.000102798 -2.4771 24.5082
513 1 0.4 0.4 0.000102734 -2.4771 24.5083
488 1 0.416667 0.35 0.0651004 -2.83187 0.00500651
514 1 0.45 0.35 0.000102639 -2.4771 24.5083
608 1 0.466667 0.3 0.0651004 -2.83187 0.00500665
638 1 0.466667 0.4 0.0651003 -2.83187 0.00500681
639 1 0.5 0.4 0.000102804 -2.4771 24.5081
642 1 0.5 0.3 0.000102749 -2.4771 24.5083
640 1 0.516667 0.35 0.0651003 -2.83187 0.00500725
644 1 0.55 0.35 0.00010262 -2.4771 24.5084
762 1 0.566667 0.4 0.0651003 -2.83187 0.00500712
765 1 0.566667 0.3 0.0651005 -2.83187 0.00500494
766 1 0.6 0.3 0.000102929 -2.4771 24.5081
768 1 0.616667 0.35 0.0651004 -2.83187 0.00500663
793 1 0.6 0.4 0.000102767 -2.4771 24.5083
794 1 0.65 0.35 0.000102709 -2.4771 24.5084
888 1 0.666667 0.3 0.0651004 -2.83187 0.00500574
918 1 0.666667 0.4 0.0651005 -2.83187 0.00500566
919 1 0.7 0.4 0.000102849 -2.4771 24.5081
920 1 0.716667 0.35 0.0651004 -2.83187 0.0050069
922 1 0.7 0.3 0.000102681 -2.4771 24.5084
924 1 0.75 0.35 0.000102851 -2.4771 24.5082
1042 1 0.766667 0.4 0.0651005 -2.83187 0.00500548
1045 1 0.766667 0.3 0.0651004 -2.83187 0.00500676
1046 1 0.8 0.3 0.000102755 -2.4771 24.5083
1048 1 0.816667 0.35 0.0651004 -2.83187 0.00500649
1073 1 0.8 0.4 0.000102794 -2.4771 24.5083
1074 1 0.85 0.35 0.000102904 -2.4771 24.5081
1168 1 0.866667 0.3 0.0651005 -2.83187 0.00500571
1198 1 0.866667 0.4 0.0651003 -2.83187 0.00500761
1199 1 0.9 0.4 0.00010277 -2.4771 24.5081
1202 1 0.9 0.3 0.000102697 -2.4771 24.5084
15 1 1 0.4 0.00010269 -2.4771 24.5084
1200 1 0.916667 0.35 0.0651003 -2.83187 0.00500719
1204 1 0.95 0.35 0.000102575 -2.4771 24.5085
1317 1 0.966667 0.4 0.0651005 -2.83187 0.00500437
1320 1 0.966667 0.3 0.0651005 -2.83187 0.00500641
13 1 0.0166665 0.45 0.0651004 -2.83187 0.0050075
14 1 0.0166666 0.55 0.0651005 -2.83187 0.00500651
17 1 0.0500002 0.45 0.000102831 -2.4771 24.5081
22 1 0.0500002 0.55 0.000102913 -2.4771 24.5081
77 1 0.0666668 0.5 0.0651005 -2.83187 0.00500565
83 1 0.116667 0.45 0.0651004 -2.83187 0.00500635
100 1 0.116667 0.55 0.0651005 -2.83187 0.00500543
102 1 0.0999999 0.5 0.000102757 -2.4771 24.5084
103 1 0.15 0.45 0.000102728 -2.4771 24.5083
104 1 0.15 0.55 0.000102851 -2.4771 24.5082
229 1 0.166667 0.5 0.0651004 -2.83187 0.00500708
230 1 0.2 0.5 0.000102797 -2.4771 24.5083
231 1 0.216667 0.45 0.0651005 -2.83187 0.00500626
232 1 0.216667 0.55 0.0651005 -2.83187 0.00500537
250 1 0.25 0.55 0.000102775 -2.4771 24.5082
235 1 0.25 0.45 0.000102795 -2.4771 24.5084
355 1 0.266667 0.5 0.0651005 -2.83187 0.00500657
361 1 0.316667 0.45 0.0651005 -2.83187 0.00500537
380 1 0.316667 0.55 0.0651004 -2.83187 0.00500762
382 1 0.3 0.5 0.000102836 -2.4771 24.5082
383 1 0.35 0.45 0.000102943 -2.4771 24.5081
384 1 0.35 0.55 0.000102877 -2.4771 24.5082
509 1 0.366667 0.5 0.0651006 -2.83187 0.00500432
510 1 0.4 0.5 0.000102776 -2.4771 24.5082
511 1 0.416667 0.45 0.0651003 -2.83187 0.00500787
512 1 0.416667 0.55 0.0651006 -2.83187 0.00500386
515 1 0.45 0.45 0.000102647 -2.4771 24.5083
530 1 0.45 0.55 0.00010271 -2.4771 24.5082
635 1 0.466667 0.5 0.0651003 -2.83187 0.0050074
662 1 0.5 0.5 0.000102703 -2.4771 24.5082
641 1 0.516667 0.45 0.0651005 -2.83187 0.00500517
660 1 0.516667 0.55 0.0651004 -2.83187 0.00500627
663 1 0.55 0.45 0.000102712 -2.4771 24.5084
664 1 0.55 0.55 0.00010284 -2.4771 24.5081
789 1 0.566667 0.5 0.0651004 -2.83187 0.00500571
790 1 0.6 0.5 0.000102837 -2.4771 24.5082
791 1 0.616667 0.45 0.0651004 -2.83187 0.00500708
792 1 0.616667 0.55 0.0651005 -2.83187 0.00500589
795 1 0.65 0.45 0.000102698 -2.4771 24.5083
810 1 0.65 0.55 0.000102665 -2.4771 24.5083
915 1 0.666667 0.5 0.0651004 -2.83187 0.00500694
921 1 0.716667 0.45 0.0651004 -2.83187 0.00500647
940 1 0.716667 0.55 0.0651004 -2.83187 0.0050068
942 1 0.7 0.5 0.000102721 -2.4771 24.5084
944 1 0.75 0.55 0.000102788 -2.4771 24.5083
943 1 0.75 0.45 0.000102899 -2.4771 24.5082
1069 1 0.766667 0.5 0.0651005 -2.83187 0.00500467
1070 1 0.8 0.5 0.00010268 -2.4771 24.5085
1071 1 0.816667 0.45 0.0651004 -2.83187 0.00500632
1072 1 0.816667 0.55 0.0651005 -2.83187 0.00500537
1075 1 0.85 0.45 0.000102706 -2.4771 24.5084
1090 1 0.85 0.55 0.00010282 -2.4771 24.5082
1195 1 0.866667 0.5 0.0651004 -2.83187 0.0050069
1201 1 0.916666 0.45 0.0651005 -2.83187 0.00500473
1222 1 0.9 0.5 0.000102695 -2.4771 24.5083
12 1 1 0.5 0.000102721 -2.4771 24.5085
1220 1 0.916667 0.55 0.0651005 -2.83187 0.00500603
1223 1 0.95 0.45 0.000102912 -2.4771 24.508
1224 1 0.95 0.55 0.000102703 -2.4771 24.5084
1338 1 0.966667 0.5 0.0651004 -2.83187 0.00500696
18 1 1.05497e-07 0.7 0.000102742 -2.4771 24.5084
19 1 0.0166668 0.65 0.0651004 -2.83187 0.00500639
21 1 1.68545e-07 0.6 0.000102933 -2.4771 24.508
23 1 0.0499999 0.65 0.000102581 -2.4771 24.5086
95 1 0.0666665 0.7 0.0651004 -2.83187 0.00500603
98 1 0.0666665 0.6 0.0651005 -2.83187 0.00500611
99 1 0.1 0.6 0.000102876 -2.4771 24.5083
101 1 0.116667 0.65 0.0651004 -2.83187 0.0050072
114 1 0.0999999 0.7 0.00010288 -2.4771 24.5082
115 1 0.15 0.65 0.00010276 -2.4771 24.5084
245 1 0.166667 0.7 0.0651005 -2.83187 0.00500527
226 1 0.166667 0.6 0.0651004 -2.83187 0.00500681
246 1 0.2 0.7 0.00010284 -2.4771 24.5082
247 1 0.216667 0.65 0.0651004 -2.83187 0.00500762
249 1 0.2 0.6 0.000102731 -2.4771 24.5083
251 1 0.25 0.65 0.000102692 -2.4771 24.5083
375 1 0.266667 0.7 0.0651004 -2.83187 0.0050067
378 1 0.266667 0.6 0.0651005 -2.83187 0.00500508
379 1 0.3 0.6 0.000102765 -2.4771 24.5083
381 1 0.316666 0.65 0.0651004 -2.83187 0.00500597
394 1 0.3 0.7 0.000102722 -2.4771 24.5084
395 1 0.35 0.65 0.000102824 -2.4771 24.5082
506 1 0.366667 0.6 0.0651004 -2.83187 0.00500741
525 1 0.366667 0.7 0.0651002 -2.83187 0.00500851
526 1 0.4 0.7 0.000102606 -2.4771 24.5085
529 1 0.4 0.6 0.000102875 -2.4771 24.5081
527 1 0.416667 0.65 0.0651004 -2.83187 0.0050067
531 1 0.45 0.65 0.000102866 -2.4771 24.5081
655 1 0.466667 0.7 0.0651005 -2.83187 0.00500597
658 1 0.466667 0.6 0.0651004 -2.83187 0.00500648
659 1 0.5 0.6 0.000102649 -2.4771 24.5084
674 1 0.5 0.7 0.000102753 -2.4771 24.5083
661 1 0.516667 0.65 0.0651004 -2.83187 0.00500536
675 1 0.55 0.65 0.000102736 -2.4771 24.5083
786 1 0.566667 0.6 0.0651004 -2.83187 0.00500682
805 1 0.566667 0.7 0.0651003 -2.83187 0.00500751
806 1 0.6 0.7 0.000102792 -2.4771 24.5084
807 1 0.616667 0.65 0.0651004 -2.83187 0.00500621
809 1 0.6 0.6 0.000102731 -2.4771 24.5081
811 1 0.65 0.65 0.000102787 -2.4771 24.5082
938 1 0.666667 0.6 0.0651004 -2.83187 0.005006
935 1 0.666667 0.7 0.0651005 -2.83187 0.00500622
939 1 0.7 0.6 0.000102766 -2.4771 24.5082
941 1 0.716667 0.65 0.0651004 -2.83187 0.00500572
954 1 0.7 0.7 0.000102794 -2.4771 24.5083
955 1 0.75 0.65 0.000102684 -2.4771 24.5083
1066 1 0.766667 0.6 0.0651005 -2.83187 0.00500554
1085 1 0.766667 0.7 0.0651003 -2.83187 0.00500748
1086 1 0.8 0.7 0.000102695 -2.4771 24.5083
1087 1 0.816667 0.65 0.0651003 -2.83187 0.00500761
1089 1 0.8 0.6 0.000102717 -2.4771 24.5083
1091 1 0.85 0.65 0.000102808 -2.4771 24.5081
1215 1 0.866667 0.7 0.0651003 -2.83187 0.00500697
1218 1 0.866667 0.6 0.0651005 -2.83187 0.00500508
1219 1 0.9 0.6 0.000102914 -2.4771 24.5081
1234 1 0.9 0.7 0.000102702 -2.4771 24.5084
1221 1 0.916667 0.65 0.0651005 -2.83187 0.00500619
1235 1 0.95 0.65 0.000102837 -2.4771 24.5082
1335 1 0.966667 0.6 0.0651005 -2.83187 0.00500606
1348 1 0.966667 0.7 0.0651004 -2.83187 0.00500722
20 1 0.0166667 0.75 0.0651005 -2.83187 0.00500634
25 1 0.0166666 0.85 0.0651005 -2.83187 0.0050064
28 1 0.0499999 0.75 0.00010272 -2.4771 24.5084
29 1 0.0499999 0.85 0.000102852 -2.4771 24.5082
110 1 0.0666666 0.8 0.0651004 -2.83187 0.00500629
111 1 0.0999998 0.8 0.000102843 -2.4771 24.5082
112 1 0.116667 0.75 0.0651004 -2.83187 0.00500672
113 1 0.116667 0.85 0.0651004 -2.83187 0.00500584
116 1 0.15 0.75 0.000102665 -2.4771 24.5084
119 1 0.15 0.85 0.00010267 -2.4771 24.5083
242 1 0.166667 0.8 0.0651003 -2.83187 0.00500687
248 1 0.216666 0.75 0.0651004 -2.83187 0.00500572
255 1 0.216667 0.85 0.0651002 -2.83187 0.00500813
257 1 0.2 0.8 0.000102637 -2.4771 24.5083
259 1 0.25 0.85 0.000102671 -2.4771 24.5084
258 1 0.25 0.75 0.000102783 -2.4771 24.5081
390 1 0.266667 0.8 0.0651004 -2.83187 0.00500616
391 1 0.3 0.8 0.000102787 -2.4771 24.5083
392 1 0.316667 0.75 0.0651004 -2.83187 0.00500651
393 1 0.316667 0.85 0.0651005 -2.83187 0.0050053
396 1 0.35 0.75 0.00010265 -2.4771 24.5084
399 1 0.35 0.85 0.000102792 -2.4771 24.5082
522 1 0.366667 0.8 0.0651003 -2.83187 0.00500841
535 1 0.416667 0.85 0.0651003 -2.83187 0.00500747
537 1 0.4 0.8 0.000102704 -2.4771 24.5083
528 1 0.416667 0.75 0.0651004 -2.83187 0.00500596
538 1 0.45 0.75 0.000102858 -2.4771 24.5081
539 1 0.45 0.85 0.000102803 -2.4771 24.5082
670 1 0.466667 0.8 0.0651006 -2.83187 0.00500423
671 1 0.5 0.8 0.000102768 -2.4771 24.5082
672 1 0.516667 0.75 0.0651005 -2.83187 0.00500568
673 1 0.516667 0.85 0.0651004 -2.83187 0.00500677
676 1 0.55 0.75 0.000102857 -2.4771 24.5082
679 1 0.55 0.85 0.000102634 -2.4771 24.5084
802 1 0.566667 0.8 0.0651005 -2.83187 0.00500637
808 1 0.616666 0.75 0.0651005 -2.83187 0.00500618
815 1 0.616667 0.85 0.0651005 -2.83187 0.00500635
817 1 0.6 0.8 0.000102958 -2.4771 24.5081
818 1 0.65 0.75 0.000102926 -2.4771 24.5082
819 1 0.65 0.85 0.000102936 -2.4771 24.5081
950 1 0.666667 0.8 0.0651005 -2.83187 0.00500558
951 1 0.7 0.8 0.000102788 -2.4771 24.5083
952 1 0.716667 0.75 0.0651005 -2.83187 0.00500515
953 1 0.716666 0.85 0.0651003 -2.83187 0.00500771
956 1 0.75 0.75 0.000102672 -2.4771 24.5084
959 1 0.75 0.85 0.00010278 -2.4771 24.5081
1082 1 0.766667 0.8 0.0651004 -2.83187 0.00500516
1088 1 0.816667 0.75 0.0651004 -2.83187 0.00500695
1095 1 0.816667 0.85 0.0651005 -2.83187 0.00500501
1097 1 0.8 0.8 0.000102698 -2.4771 24.5084
1098 1 0.85 0.75 0.000102745 -2.4771 24.5083
1099 1 0.85 0.85 0.000102905 -2.4771 24.5081
1230 1 0.866667 0.8 0.0651005 -2.83187 0.00500468
1231 1 0.9 0.8 0.00010271 -2.4771 24.5083
1233 1 0.916667 0.85 0.0651003 -2.83187 0.00500808
27 1 1 0.8 0.000102908 -2.4771 24.5081
1232 1 0.916667 0.75 0.0651004 -2.83187 0.00500668
1236 1 0.95 0.75 0.000102779 -2.4771 24.5081
1239 1 0.95 0.85 0.00010287 -2.4771 24.5081
1345 1 0.966667 0.8 0.0651006 -2.83187 0.0050042
24 1 1.49884e-07 0.9 0.000102846 -2.4771 24.5082
26 1 0.0166667 0.95 0.0651005 -2.83187 0.00500548
30 1 0.0500002 0.95 0.000102741 -2.4771 24.5083
107 1 0.0666668 0.9 0.0651004 -2.83187 0.00500664
117 1 0.116667 0.95 0.0651003 -2.83187 0.00500772
118 1 0.0999998 0.9 0.00010283 -2.4771 24.5082
120 1 0.15 0.95 0.000102739 -2.4771 24.5083
253 1 0.166667 0.9 0.0651004 -2.83187 0.00500512
155 1 0.166667 1 0.0651004 -2.83187 0.00500677
254 1 0.2 0.9 0.000102631 -2.4771 24.5083
256 1 0.216667 0.95 0.0651003 -2.83187 0.00500797
260 1 0.25 0.95 0.000102775 -2.4771 24.5081
387 1 0.266667 0.9 0.0651006 -2.83187 0.00500373
397 1 0.316667 0.95 0.0651005 -2.83187 0.0050066
398 1 0.3 0.9 0.00010294 -2.4771 24.5081
435 1 0.366667 1 0.0651004 -2.83187 0.00500738
400 1 0.35 0.95 0.000102861 -2.4771 24.5083
533 1 0.366667 0.9 0.0651005 -2.83187 0.00500483
534 1 0.4 0.9 0.000102811 -2.4771 24.5083
536 1 0.416667 0.95 0.0651006 -2.83187 0.00500446
587 1 0.466667 1 0.0651004 -2.83187 0.00500695
540 1 0.45 0.95 0.000102859 -2.4771 24.5083
667 1 0.466667 0.9 0.0651004 -2.83187 0.00500658
678 1 0.5 0.9 0.000102661 -2.4771 24.5083
677 1 0.516667 0.95 0.0651004 -2.83187 0.00500568
680 1 0.55 0.95 0.000102773 -2.4771 24.5083
813 1 0.566667 0.9 0.0651003 -2.83187 0.00500718
742 1 0.6 1 0.000102847 -2.4771 24.508
814 1 0.6 0.9 0.000102625 -2.4771 24.5084
816 1 0.616667 0.95 0.0651005 -2.83187 0.00500456
820 1 0.65 0.95 0.000102764 -2.4771 24.5082
947 1 0.666667 0.9 0.0651004 -2.83187 0.00500654
868 1 0.7 1 0.000102703 -2.4771 24.5083
957 1 0.716667 0.95 0.0651003 -2.83187 0.00500722
958 1 0.7 0.9 0.000102546 -2.4771 24.5085
960 1 0.75 0.95 0.00010264 -2.4771 24.5084
995 1 0.766667 1 0.0651004 -2.83187 0.00500681
1022 1 0.8 1 0.000102888 -2.4771 24.5082
1093 1 0.766667 0.9 0.0651004 -2.83187 0.00500626
1094 1 0.8 0.9 0.000102879 -2.4771 24.5082
1096 1 0.816667 0.95 0.0651004 -2.83187 0.00500713
1100 1 0.85 0.95 0.000102684 -2.4771 24.5084
1227 1 0.866667 0.9 0.0651005 -2.83187 0.00500527
1238 1 0.9 0.9 0.000102787 -2.4771 24.5083
1237 1 0.916667 0.95 0.0651004 -2.83187 0.00500647
1240 1 0.95 0.95 0.000102721 -2.4771 24.5084
1350 1 0.966667 0.9 0.0651005 -2.83187 0.00500583
36 1 0.0500001 0.0499997 0.19741 -2.85004 3.81126e-08
44 1 0.0333332 0.0999998 0.131243 -2.8512 2.32545e-06
46 1 0.0833335 0.0499999 0.131243 -2.8512 2.32535e-06
150 1 0.1 0.1 0.19741 -2.85004 3.57218e-08
151 1 0.133333 0.1 0.131243 -2.8512 2.37397e-06
152 1 0.15 0.0499999 0.19741 -2.85004 3.42594e-08
156 1 0.183333 0.05 0.131243 -2.8512 2.3437e-06
280 1 0.2 0.1 0.19741 -2.85004 3.86419e-08
284 1 0.233333 1.11071e-07 0.131243 -2.8512 2.34891e-06
285 1 0.25 0.0499999 0.19741 -2.85004 3.5713e-08
303 1 0.233333 0.1 0.131243 -2.8512 2.33202e-06
305 1 0.283333 0.0500002 0.131243 -2.8512 2.31108e-06
430 1 0.3 0.1 0.19741 -2.85004 3.79361e-08
431 1 0.333333 0.1 0.131243 -2.8512 2.36953e-06
434 1 0.333333 2.24051e-07 0.131243 -2.8512 2.35576e-06
432 1 0.35 0.0500003 0.19741 -2.85004 3.55221e-08
436 1 0.383333 0.0499999 0.131243 -2.8512 2.33957e-06
560 1 0.4 0.0999997 0.19741 -2.85004 3.68568e-08
563 1 0.4 7.79891e-08 0.19741 -2.85004 3.37028e-08
564 1 0.433333 3.30343e-07 0.131243 -2.8512 2.38239e-06
565 1 0.45 0.0499997 0.19741 -2.85003 3.52486e-08
583 1 0.433333 0.1 0.131243 -2.8512 2.33256e-06
585 1 0.483333 0.05 0.131243 -2.8512 2.38805e-06
710 1 0.5 0.0999998 0.19741 -2.85004 3.75866e-08
711 1 0.533333 0.1 0.131243 -2.8512 2.30794e-06
712 1 0.55 0.0499998 0.19741 -2.85004 3.58153e-08
714 1 0.533333 1.10326e-07 0.131243 -2.8512 2.32412e-06
716 1 0.583333 0.0499998 0.131243 -2.8512 2.35453e-06
840 1 0.6 0.1 0.19741 -2.85004 3.68732e-08
844 1 0.633333 2.24635e-08 0.131243 -2.8512 2.35851e-06
845 1 0.65 0.0499997 0.19741 -2.85004 4.23438e-08
863 1 0.633333 0.1 0.131243 -2.8512 2.33506e-06
865 1 0.683333 0.0500003 0.131243 -2.8512 2.37851e-06
975 1 0.7 1.52396e-07 0.19741 -2.85004 3.61742e-08
990 1 0.7 0.0999998 0.19741 -2.85003 3.44512e-08
991 1 0.733333 0.1 0.131243 -2.8512 2.34352e-06
992 1 0.75 0.0499997 0.19741 -2.85004 3.95933e-08
994 1 0.733333 7.73562e-08 0.131243 -2.8512 2.35034e-06
996 1 0.783333 0.0499999 0.131243 -2.8512 2.35941e-06
1120 1 0.8 0.1 0.19741 -2.85004 3.52161e-08
1123 1 0.8 3.23937e-07 0.19741 -2.85004 3.92677e-08
1143 1 0.833333 0.1 0.131243 -2.8512 2.3221e-06
1125 1 0.85 0.05 0.19741 -2.85004 3.55227e-08
1145 1 0.883333 0.0500002 0.131243 -2.8512 2.36126e-06
1255 1 0.9 1.558e-07 0.19741 -2.85004 3.18204e-08
1270 1 0.9 0.1 0.19741 -2.85004 4.10207e-08
31 1 1 0.1 0.19741 -2.85004 3.4318e-08
1271 1 0.933333 0.0999997 0.131243 -2.8512 2.34632e-06
1272 1 0.95 0.0500003 0.19741 -2.85003 3.99352e-08
1274 1 0.933333 1.27782e-07 0.131243 -2.8512 2.35722e-06
1276 1 0.983333 0.0500001 0.131243 -2.8512 2.33017e-06
40 1 1.2092e-07 0.2 0.19741 -2.85004 3.52605e-08
41 1 0.0333335 0.2 0.131243 -2.8512 2.32077e-06
42 1 0.0500001 0.15 0.19741 -2.85004 3.86899e-08
43 1 0.05 0.25 0.19741 -2.85004 3.71501e-08
47 1 0.0833333 0.15 0.131243 -2.8512 2.34938e-06
60 1 0.0833333 0.25 0.131243 -2.8512 2.34207e-06
147 1 0.0999999 0.2 0.19741 -2.85004 3.86783e-08
153 1 0.15 0.15 0.19741 -2.85003 3.25278e-08
172 1 0.15 0.25 0.19741 -2.85004 3.36017e-08
174 1 0.133333 0.2 0.131243 -2.8512 2.37001e-06
176 1 0.183333 0.15 0.131243 -2.8512 2.32557e-06
177 1 0.183333 0.25 0.131243 -2.8512 2.3606e-06
299 1 0.2 0.2 0.19741 -2.85004 3.79037e-08
300 1 0.233333 0.2 0.131243 -2.8512 2.34265e-06
301 1 0.25 0.15 0.19741 -2.85004 3.805e-08
302 1 0.25 0.25 0.19741 -2.85004 3.99447e-08
306 1 0.283333 0.15 0.131243 -2.8512 2.34665e-06
329 1 0.283333 0.25 0.131243 -2.8512 2.35171e-06
427 1 0.3 0.2 0.19741 -2.85004 3.53644e-08
454 1 0.333333 0.2 0.131243 -2.8512 2.38278e-06
433 1 0.35 0.15 0.19741 -2.85004 3.87721e-08
452 1 0.35 0.25 0.19741 -2.85003 3.7717e-08
456 1 0.383333 0.15 0.131243 -2.8512 2.32744e-06
457 1 0.383333 0.25 0.131243 -2.8512 2.3434e-06
579 1 0.4 0.2 0.19741 -2.85004 3.35241e-08
580 1 0.433333 0.2 0.131243 -2.8512 2.34374e-06
581 1 0.45 0.15 0.19741 -2.85004 3.98266e-08
582 1 0.45 0.25 0.19741 -2.85004 4.20154e-08
586 1 0.483333 0.15 0.131243 -2.8512 2.33013e-06
609 1 0.483333 0.25 0.131243 -2.8512 2.3468e-06
707 1 0.5 0.2 0.19741 -2.85004 3.66226e-08
713 1 0.55 0.15 0.19741 -2.85004 4.13837e-08
732 1 0.55 0.25 0.19741 -2.85004 3.87351e-08
734 1 0.533333 0.2 0.131243 -2.8512 2.32871e-06
737 1 0.583333 0.25 0.131243 -2.8512 2.34226e-06
736 1 0.583333 0.15 0.131243 -2.8512 2.36066e-06
859 1 0.6 0.2 0.19741 -2.85004 3.46761e-08
860 1 0.633333 0.2 0.131243 -2.8512 2.32279e-06
861 1 0.65 0.15 0.19741 -2.85004 3.30526e-08
862 1 0.65 0.25 0.19741 -2.85004 3.97778e-08
866 1 0.683333 0.15 0.131243 -2.8512 2.34608e-06
889 1 0.683333 0.25 0.131243 -2.8512 2.36669e-06
987 1 0.7 0.2 0.19741 -2.85004 3.706e-08
993 1 0.75 0.15 0.19741 -2.85004 4.40979e-08
1012 1 0.75 0.25 0.19741 -2.85004 3.96656e-08
1014 1 0.733333 0.2 0.131243 -2.8512 2.37871e-06
1016 1 0.783333 0.15 0.131243 -2.8512 2.35204e-06
1017 1 0.783333 0.25 0.131243 -2.8512 2.31769e-06
1139 1 0.8 0.2 0.19741 -2.85004 3.14704e-08
1140 1 0.833333 0.2 0.131243 -2.8512 2.35571e-06
1141 1 0.85 0.15 0.19741 -2.85004 3.90966e-08
1142 1 0.85 0.25 0.19741 -2.85004 3.89021e-08
1146 1 0.883333 0.15 0.131243 -2.8512 2.32566e-06
1169 1 0.883333 0.25 0.131243 -2.8512 2.33789e-06
1267 1 0.9 0.2 0.19741 -2.85004 3.33998e-08
1273 1 0.95 0.15 0.19741 -2.85004 3.83459e-08
1292 1 0.95 0.25 0.19741 -2.85004 3.54289e-08
1294 1 0.933333 0.2 0.131243 -2.8512 2.35458e-06
1296 1 0.983333 0.15 0.131243 -2.8512 2.3546e-06
1297 1 0.983333 0.25 0.131243 -2.8512 2.36624e-06
54 1 1.27527e-07 0.4 0.19741 -2.85004 3.64231e-08
55 1 0.0333334 0.4 0.131243 -2.8512 2.33998e-06
56 1 0.0500002 0.35 0.19741 -2.85004 3.84195e-08
58 1 0.0333334 0.3 0.131243 -2.8512 2.38119e-06
61 1 0.0833334 0.35 0.131243 -2.8512 2.34182e-06
167 1 0.0999999 0.4 0.19741 -2.85004 4.15565e-08
170 1 0.1 0.3 0.19741 -2.85004 3.98092e-08
171 1 0.133333 0.3 0.131243 -2.8512 2.34201e-06
173 1 0.15 0.35 0.19741 -2.85004 3.93994e-08
201 1 0.133333 0.4 0.131243 -2.8512 2.36323e-06
203 1 0.183333 0.35 0.131243 -2.8512 2.36174e-06
296 1 0.2 0.3 0.19741 -2.85004 3.15776e-08
323 1 0.2 0.4 0.19741 -2.85004 3.98752e-08
324 1 0.233333 0.4 0.131243 -2.8512 2.34993e-06
325 1 0.25 0.35 0.19741 -2.85004 3.77266e-08
327 1 0.233333 0.3 0.131243 -2.8512 2.3365e-06
330 1 0.283333 0.35 0.131243 -2.8512 2.36268e-06
447 1 0.3 0.4 0.19741 -2.85004 3.78158e-08
450 1 0.3 0.3 0.19741 -2.85004 3.74386e-08
451 1 0.333333 0.3 0.131243 -2.8512 2.37428e-06
481 1 0.333333 0.4 0.131243 -2.8512 2.34124e-06
453 1 0.35 0.35 0.19741 -2.85004 3.55503e-08
483 1 0.383333 0.35 0.131243 -2.8512 2.35955e-06
576 1 0.4 0.3 0.19741 -2.85004 3.52682e-08
603 1 0.4 0.4 0.19741 -2.85004 3.27385e-08
604 1 0.433333 0.4 0.131243 -2.8512 2.3366e-06
605 1 0.45 0.35 0.19741 -2.85004 3.84308e-08
607 1 0.433334 0.3 0.131243 -2.8512 2.3155e-06
610 1 0.483333 0.35 0.131243 -2.8512 2.37443e-06
727 1 0.5 0.4 0.197409 -2.85004 3.15995e-08
730 1 0.5 0.3 0.19741 -2.85004 3.90339e-08
731 1 0.533333 0.3 0.131243 -2.8512 2.36871e-06
733 1 0.55 0.35 0.19741 -2.85003 3.53085e-08
761 1 0.533333 0.4 0.131243 -2.8512 2.35504e-06
763 1 0.583333 0.35 0.131243 -2.8512 2.33805e-06
856 1 0.6 0.3 0.19741 -2.85004 3.68077e-08
883 1 0.6 0.4 0.19741 -2.85004 4.32926e-08
884 1 0.633333 0.4 0.131243 -2.8512 2.33431e-06
885 1 0.65 0.35 0.19741 -2.85003 3.44875e-08
887 1 0.633333 0.3 0.131243 -2.8512 2.3935e-06
890 1 0.683333 0.35 0.131243 -2.8512 2.31811e-06
1007 1 0.7 0.4 0.19741 -2.85004 3.82844e-08
1010 1 0.7 0.3 0.19741 -2.85004 3.22211e-08
1011 1 0.733333 0.3 0.131243 -2.8512 2.33689e-06
1041 1 0.733333 0.4 0.131243 -2.8512 2.35468e-06
1013 1 0.75 0.35 0.19741 -2.85004 3.3056e-08
1043 1 0.783333 0.35 0.131243 -2.8512 2.38335e-06
1136 1 0.8 0.3 0.19741 -2.85004 4.05164e-08
1163 1 0.8 0.4 0.19741 -2.85004 3.56683e-08
1167 1 0.833333 0.3 0.131243 -2.8512 2.37638e-06
1164 1 0.833333 0.4 0.131243 -2.8512 2.34409e-06
1165 1 0.85 0.35 0.19741 -2.85004 3.97607e-08
1170 1 0.883333 0.35 0.131243 -2.8512 2.38153e-06
1287 1 0.9 0.4 0.19741 -2.85004 3.80246e-08
1290 1 0.9 0.3 0.19741 -2.85004 3.3947e-08
37 1 1 0.3 0.19741 -2.85004 3.43587e-08
1291 1 0.933333 0.3 0.131243 -2.8512 2.30213e-06
1293 1 0.95 0.35 0.19741 -2.85004 4.11712e-08
1316 1 0.933333 0.4 0.131243 -2.8512 2.36354e-06
1318 1 0.983333 0.35 0.131243 -2.8512 2.32005e-06
51 1 6.51706e-08 0.5 0.19741 -2.85004 3.61828e-08
57 1 0.0500001 0.45 0.19741 -2.85003 3.64206e-08
74 1 0.0499999 0.55 0.19741 -2.85004 3.37927e-08
76 1 0.0333333 0.5 0.131243 -2.8512 2.35969e-06
78 1 0.0833333 0.45 0.131243 -2.8512 2.35263e-06
79 1 0.0833332 0.55 0.131243 -2.8512 2.3447e-06
197 1 0.1 0.5 0.19741 -2.85004 3.68504e-08
198 1 0.133333 0.5 0.131243 -2.8512 2.34384e-06
199 1 0.15 0.45 0.19741 -2.85004 3.65086e-08
200 1 0.15 0.55 0.19741 -2.85004 3.93092e-08
204 1 0.183333 0.45 0.131243 -2.8512 2.34672e-06
227 1 0.183333 0.55 0.131243 -2.8512 2.38272e-06
320 1 0.2 0.5 0.19741 -2.85003 3.34067e-08
326 1 0.25 0.45 0.19741 -2.85004 3.51702e-08
352 1 0.25 0.55 0.19741 -2.85004 4.03988e-08
354 1 0.233333 0.5 0.131243 -2.8512 2.34807e-06
356 1 0.283333 0.45 0.131243 -2.8512 2.30923e-06
357 1 0.283333 0.55 0.131243 -2.8512 2.33112e-06
477 1 0.3 0.5 0.19741 -2.85004 3.43315e-08
478 1 0.333333 0.5 0.131243 -2.8512 2.39141e-06
479 1 0.35 0.45 0.19741 -2.85004 3.23614e-08
480 1 0.35 0.55 0.19741 -2.85004 4.17147e-08
484 1 0.383333 0.45 0.131243 -2.8512 2.32768e-06
507 1 0.383333 0.55 0.131243 -2.8512 2.33416e-06
600 1 0.4 0.5 0.19741 -2.85004 3.6689e-08
606 1 0.45 0.45 0.19741 -2.85004 4.01085e-08
632 1 0.45 0.55 0.19741 -2.85004 3.45266e-08
634 1 0.433333 0.5 0.131243 -2.8512 2.35265e-06
636 1 0.483333 0.45 0.131243 -2.8512 2.3217e-06
637 1 0.483333 0.55 0.131243 -2.8512 2.362e-06
757 1 0.5 0.5 0.19741 -2.85004 3.8343e-08
758 1 0.533333 0.5 0.131243 -2.8512 2.32251e-06
759 1 0.55 0.45 0.19741 -2.85004 3.7255e-08
760 1 0.55 0.55 0.19741 -2.85003 4.17582e-08
764 1 0.583333 0.45 0.131242 -2.8512 2.41128e-06
787 1 0.583333 0.55 0.131243 -2.8512 2.37145e-06
880 1 0.6 0.5 0.197409 -2.85004 3.30842e-08
886 1 0.65 0.45 0.19741 -2.85004 4.40199e-08
912 1 0.65 0.55 0.19741 -2.85004 3.99048e-08
914 1 0.633333 0.5 0.131243 -2.8512 2.29392e-06
916 1 0.683333 0.45 0.131243 -2.8512 2.3498e-06
917 1 0.683333 0.55 0.131243 -2.8512 2.35331e-06
1037 1 0.7 0.5 0.19741 -2.85004 3.5987e-08
1038 1 0.733333 0.5 0.131243 -2.8512 2.35342e-06
1039 1 0.75 0.45 0.19741 -2.85004 3.22332e-08
1040 1 0.75 0.55 0.19741 -2.85004 3.54649e-08
1044 1 0.783333 0.45 0.131243 -2.8512 2.32508e-06
1067 1 0.783333 0.55 0.131243 -2.8512 2.35417e-06
1160 1 0.8 0.5 0.19741 -2.85004 3.74103e-08
1194 1 0.833333 0.5 0.131243 -2.8512 2.3456e-06
1166 1 0.85 0.45 0.19741 -2.85004 3.82157e-08
1192 1 0.85 0.55 0.19741 -2.85004 3.47659e-08
1196 1 0.883333 0.45 0.131243 -2.8512 2.3132e-06
1197 1 0.883333 0.55 0.131243 -2.8512 2.35541e-06
1312 1 0.9 0.5 0.19741 -2.85004 3.37365e-08
1313 1 0.933333 0.5 0.131243 -2.8512 2.31976e-06
1314 1 0.95 0.45 0.19741 -2.85004 3.39151e-08
1315 1 0.95 0.55 0.19741 -2.85004 3.75635e-08