ITEM: TIMESTEP
122
ITEM: NUMBER OF ATOMS
3200
ITEM: BOX BOUNDS pp pp ss
0.0000000000000000e+00 5.0092067021360698e+01
0.0000000000000000e+00 2.8920668379047399e+01
-1.5671243861047840e-01 3.5533785112952430e+01
ITEM: ATOMS id type xs ys zs c_peratom c_csym
1 1 1.55566e-07 0.0999997 0.000102741 -2.4771 24.5082
2 1 0.0166667 0.0500003 0.0651005 -2.83187 0.00500484
5 1 0.0499998 0.0500001 0.000102703 -2.4771 24.5083
45 1 0.0666666 0.0999999 0.0651005 -2.83187 0.00500482
48 1 0.0666665 1.55797e-07 0.0651004 -2.83187 0.00500685
49 1 0.0999999 1.02684e-07 0.000102662 -2.4771 24.5084
50 1 0.116667 0.0499997 0.0651004 -2.83187 0.00500604
66 1 0.0999998 0.0999999 0.000102782 -2.4771 24.5083
67 1 0.15 0.0500002 0.000102912 -2.4771 24.5082
178 1 0.166667 0.1 0.0651004 -2.83187 0.00500709
179 1 0.2 0.1 0.000102745 -2.4771 24.5082
180 1 0.216667 0.0500002 0.0651004 -2.83187 0.00500576
182 1 0.2 1.84467e-07 0.000102791 -2.4771 24.5082
183 1 0.25 0.0500001 0.00010264 -2.4771 24.5084
304 1 0.266667 0.0999997 0.0651003 -2.83187 0.00500777
307 1 0.266666 3.81866e-09 0.0651004 -2.83187 0.00500589
308 1 0.3 7.36748e-08 0.000102824 -2.4771 24.5083
309 1 0.316666 0.0499998 0.0651006 -2.83187 0.00500484
335 1 0.3 0.0999999 0.000102792 -2.4771 24.5083
336 1 0.35 0.0499997 0.000102973 -2.4771 24.5081
458 1 0.366667 0.0999999 0.0651004 -2.83187 0.00500727
459 1 0.4 0.1 0.000102721 -2.4771 24.5084
460 1 0.416666 0.0500002 0.0651006 -2.83187 0.00500404
462 1 0.4 2.26768e-07 0.000102815 -2.4771 24.5082
463 1 0.45 0.05 0.000102931 -2.4771 24.5081
584 1 0.466667 0.1 0.0651005 -2.83187 0.00500525
588 1 0.5 7.99778e-08 0.000102702 -2.4771 24.5085
615 1 0.5 0.0999999 0.000102881 -2.4771 24.5082
589 1 0.516667 0.0499997 0.0651004 -2.83187 0.00500657
616 1 0.55 0.0500002 0.000102799 -2.4771 24.5083
715 1 0.566667 1.20563e-09 0.0651004 -2.83187 0.00500726
738 1 0.566667 0.1 0.0651005 -2.83187 0.00500567
739 1 0.6 0.1 0.000102922 -2.4771 24.5081
740 1 0.616667 0.0500001 0.0651004 -2.83187 0.00500667
743 1 0.65 0.05 0.00010267 -2.4771 24.5085
864 1 0.666667 0.1 0.0651003 -2.83187 0.00500673
867 1 0.666667 6.82114e-08 0.0651004 -2.83187 0.0050059
869 1 0.716667 0.0499999 0.0651004 -2.83187 0.00500603
895 1 0.7 0.1 0.000102742 -2.4771 24.5083
896 1 0.75 0.0500003 0.000102862 -2.4771 24.5081
1018 1 0.766667 0.1 0.0651004 -2.83187 0.00500729
1019 1 0.8 0.0999999 0.00010282 -2.4771 24.5082
1020 1 0.816667 0.05 0.0651006 -2.83187 0.00500431
1023 1 0.85 0.0499997 0.000102711 -2.4771 24.5082
1144 1 0.866667 0.1 0.0651004 -2.83187 0.00500716
1147 1 0.866667 2.39766e-07 0.0651005 -2.83187 0.00500479
1148 1 0.9 9.55149e-08 0.00010285 -2.4771 24.5082
1149 1 0.916667 0.0499998 0.0651004 -2.83187 0.00500636
1175 1 0.9 0.1 0.000102862 -2.4771 24.5081
4 1 1 3.22296e-08 0.00010284 -2.4771 24.5082
1176 1 0.95 0.0499998 0.000102716 -2.4771 24.5083
1275 1 0.966667 5.9967e-08 0.0651004 -2.83187 0.00500688
1298 1 0.966667 0.0999997 0.0651003 -2.83187 0.00500806
3 1 0.0166665 0.15 0.0651004 -2.83187 0.00500682
7 1 0.0166668 0.25 0.0651004 -2.83187 0.00500661
10 1 0.05 0.15 0.00010278 -2.4771 24.5082
11 1 0.05 0.25 0.000102683 -2.4771 24.5084
62 1 0.0666665 0.2 0.0651004 -2.83187 0.00500763
63 1 0.1 0.2 0.000102806 -2.4771 24.5082
64 1 0.116667 0.15 0.0651004 -2.83187 0.00500607
65 1 0.116667 0.25 0.0651005 -2.83187 0.0050052
68 1 0.15 0.15 0.000102769 -2.4771 24.5084
85 1 0.15 0.25 0.000102942 -2.4771 24.508
175 1 0.166667 0.2 0.0651005 -2.83187 0.00500488
181 1 0.216667 0.15 0.0651005 -2.83187 0.0050053
207 1 0.216667 0.25 0.0651003 -2.83187 0.0050082
209 1 0.2 0.2 0.000102754 -2.4771 24.5083
210 1 0.25 0.15 0.0001027 -2.4771 24.5083
211 1 0.25 0.25 0.000102776 -2.4771 24.5082
331 1 0.266667 0.2 0.0651004 -2.83187 0.00500576
332 1 0.3 0.2 0.000102693 -2.4771 24.5084
333 1 0.316667 0.15 0.0651004 -2.83187 0.00500669
334 1 0.316667 0.25 0.0651003 -2.83187 0.0050066
337 1 0.35 0.15 0.000102839 -2.4771 24.5081
363 1 0.35 0.25 0.000102786 -2.4771 24.5082
455 1 0.366667 0.2 0.0651004 -2.83187 0.00500572
461 1 0.416667 0.15 0.0651004 -2.83187 0.00500586
489 1 0.4 0.2 0.000102701 -2.4771 24.5083
487 1 0.416667 0.25 0.0651005 -2.83187 0.00500605
490 1 0.45 0.15 0.000102681 -2.4771 24.5084
491 1 0.45 0.25 0.000102788 -2.4771 24.5083
611 1 0.466667 0.2 0.0651004 -2.83187 0.00500751
612 1 0.5 0.2 0.000102698 -2.4771 24.5084
613 1 0.516667 0.15 0.0651005 -2.83187 0.00500664
614 1 0.516667 0.25 0.0651005 -2.83187 0.00500515
617 1 0.55 0.15 0.000102713 -2.4771 24.5085
643 1 0.55 0.25 0.000102824 -2.4771 24.5081
735 1 0.566666 0.2 0.0651004 -2.83187 0.0050075
741 1 0.616667 0.15 0.0651004 -2.83187 0.00500659
767 1 0.616667 0.25 0.0651006 -2.83187 0.00500424
769 1 0.6 0.2 0.00010282 -2.4771 24.5083
770 1 0.65 0.15 0.000102642 -2.4771 24.5084
771 1 0.65 0.25 0.000102905 -2.4771 24.5082
891 1 0.666667 0.2 0.0651004 -2.83187 0.00500716
892 1 0.7 0.2 0.000102831 -2.4771 24.5081
893 1 0.716667 0.15 0.0651004 -2.83187 0.00500663
894 1 0.716667 0.25 0.0651005 -2.83187 0.00500515
897 1 0.75 0.15 0.000102829 -2.4771 24.5082
923 1 0.75 0.25 0.000102732 -2.4771 24.5082
1015 1 0.766667 0.2 0.0651004 -2.83187 0.00500647
1021 1 0.816667 0.15 0.0651004 -2.83187 0.00500595
1047 1 0.816667 0.25 0.0651004 -2.83187 0.00500674
1049 1 0.8 0.2 0.000102638 -2.4771 24.5084
1050 1 0.85 0.15 0.000102581 -2.4771 24.5086
1051 1 0.85 0.25 0.000102891 -2.4771 24.5082
1171 1 0.866667 0.2 0.0651005 -2.83187 0.00500574
1172 1 0.9 0.2 0.000102863 -2.4771 24.5082
9 1 1 0.2 0.000102645 -2.4771 24.5084
1173 1 0.916667 0.15 0.0651005 -2.83187 0.00500551
1174 1 0.916667 0.25 0.0651004 -2.83187 0.00500724
1177 1 0.95 0.15 0.000102869 -2.4771 24.5082
1203 1 0.95 0.25 0.000102829 -2.4771 24.5081
1295 1 0.966667 0.2 0.0651005 -2.83187 0.00500475
6 1 6.51908e-08 0.3 0.000102931 -2.4771 24.5081
8 1 0.0166665 0.35 0.0651005 -2.83187 0.00500583
16 1 0.05 0.35 0.000102976 -2.4771 24.5081
59 1 0.0666669 0.3 0.0651004 -2.83187 0.00500664
80 1 0.0666666 0.4 0.0651006 -2.83187 0.00500513
81 1 0.0999999 0.4 0.000102802 -2.4771 24.5082
82 1 0.116667 0.35 0.0651003 -2.83187 0.00500745
84 1 0.1 0.3 0.000102596 -2.4771 24.5085
86 1 0.15 0.35 0.000102733 -2.4771 24.5083
202 1 0.166667 0.4 0.0651004 -2.83187 0.00500607
205 1 0.166667 0.3 0.0651005 -2.83187 0.00500532
206 1 0.2 0.3 0.000102805 -2.4771 24.5082
208 1 0.216667 0.35 0.0651005 -2.83187 0.00500577
233 1 0.2 0.4 0.000102843 -2.4771 24.5082
234 1 0.25 0.35 0.000102687 -2.4771 24.5083
328 1 0.266667 0.3 0.0651004 -2.83187 0.00500653
358 1 0.266667 0.4 0.0651004 -2.83187 0.00500692
359 1 0.3 0.4 0.000102756 -2.4771 24.5082
360 1 0.316667 0.35 0.0651004 -2.83187 0.00500588
362 1 0.3 0.3 0.000102706 -2.4771 24.5082
364 1 0.35 0.35 0.000102835 -2.4771 24.5082
482 1 0.366667 0.4 0.0651005 -2.83187 0.00500522
485 1 0.366667 0.3 0.0651003 -2.83187 0.0050074
486 1 0.4 0.3 0.000102805 -2.4771 24.5082
513 1 0.4 0.4 0.000102741 -2.4771 24.5083
488 1 0.416667 0.35 0.0651004 -2.83187 0.00500652
514 1 0.45 0.35 0.000102647 -2.4771 24.5083
608 1 0.466667 0.3 0.0651004 -2.83187 0.00500664
638 1 0.466667 0.4 0.0651003 -2.83187 0.00500682
639 1 0.5 0.4 0.00010281 -2.4771 24.5081
642 1 0.5 0.3 0.000102757 -2.4771 24.5083
640 1 0.516667 0.35 0.0651003 -2.83187 0.00500726
644 1 0.55 0.35 0.000102626 -2.4771 24.5084
762 1 0.566667 0.4 0.0651003 -2.83187 0.00500713
765 1 0.566667 0.3 0.0651005 -2.83187 0.00500495
766 1 0.6 0.3 0.000102934 -2.4771 24.5081
768 1 0.616667 0.35 0.0651004 -2.83187 0.00500664
793 1 0.6 0.4 0.000102773 -2.4771 24.5083
794 1 0.65 0.35 0.000102712 -2.4771 24.5084
888 1 0.666667 0.3 0.0651005 -2.83187 0.00500575
918 1 0.666667 0.4 0.0651005 -2.83187 0.00500566
919 1 0.7 0.4 0.000102854 -2.4771 24.5081
920 1 0.716667 0.35 0.0651004 -2.83187 0.0050069
922 1 0.7 0.3 0.000102686 -2.4771 24.5084
924 1 0.75 0.35 0.000102855 -2.4771 24.5082
1042 1 0.766667 0.4 0.0651005 -2.83187 0.00500549
1045 1 0.766667 0.3 0.0651004 -2.83187 0.00500675
1046 1 0.8 0.3 0.000102757 -2.4771 24.5083
1048 1 0.816667 0.35 0.0651004 -2.83187 0.00500648
1073 1 0.8 0.4 0.000102797 -2.4771 24.5083
1074 1 0.85 0.35 0.000102905 -2.4771 24.5081
1168 1 0.866667 0.3 0.0651005 -2.83187 0.0050057
1198 1 0.866667 0.4 0.0651003 -2.83187 0.0050076
1199 1 0.9 0.4 0.000102766 -2.4771 24.5081
1202 1 0.9 0.3 0.000102687 -2.4771 24.5084
15 1 1 0.4 0.000102672 -2.4771 24.5084
1200 1 0.916667 0.35 0.0651003 -2.83187 0.0050072
1204 1 0.95 0.35 0.000102561 -2.4771 24.5085
1317 1 0.966667 0.4 0.0651005 -2.83187 0.00500437
1320 1 0.966667 0.3 0.0651004 -2.83187 0.00500642
13 1 0.0166665 0.45 0.0651003 -2.83187 0.00500751
14 1 0.0166666 0.55 0.0651005 -2.83187 0.0050065
17 1 0.0500002 0.45 0.000102813 -2.4771 24.5081
22 1 0.0500002 0.55 0.000102899 -2.4771 24.5081
77 1 0.0666668 0.5 0.0651005 -2.83187 0.00500566
83 1 0.116667 0.45 0.0651004 -2.83187 0.00500636
100 1 0.116667 0.55 0.0651005 -2.83187 0.00500545
102 1 0.0999999 0.5 0.000102741 -2.4771 24.5084
103 1 0.15 0.45 0.000102716 -2.4771 24.5083
104 1 0.15 0.55 0.000102835 -2.4771 24.5082
229 1 0.166667 0.5 0.0651004 -2.83187 0.00500709
230 1 0.2 0.5 0.00010279 -2.4771 24.5083
231 1 0.216667 0.45 0.0651004 -2.83187 0.00500626
232 1 0.216667 0.55 0.0651005 -2.83187 0.00500537
250 1 0.25 0.55 0.000102777 -2.4771 24.5082
235 1 0.25 0.45 0.000102796 -2.4771 24.5084
355 1 0.266667 0.5 0.0651005 -2.83187 0.00500658
361 1 0.316667 0.45 0.0651005 -2.83187 0.00500536
380 1 0.316667 0.55 0.0651004 -2.83187 0.00500763
382 1 0.3 0.5 0.000102842 -2.4771 24.5082
383 1 0.35 0.45 0.000102954 -2.4771 24.5081
384 1 0.35 0.55 0.000102887 -2.4771 24.5082
509 1 0.366667 0.5 0.0651006 -2.83187 0.00500431
510 1 0.4 0.5 0.000102785 -2.4771 24.5082
511 1 0.416667 0.45 0.0651003 -2.83187 0.00500789
512 1 0.416667 0.55 0.0651006 -2.83187 0.00500385
515 1 0.45 0.45 0.000102655 -2.4771 24.5083
530 1 0.45 0.55 0.000102721 -2.4771 24.5082
635 1 0.466667 0.5 0.0651003 -2.83187 0.00500739
662 1 0.5 0.5 0.000102708 -2.4771 24.5082
641 1 0.516667 0.45 0.0651005 -2.83187 0.00500518
660 1 0.516667 0.55 0.0651004 -2.83187 0.00500628
663 1 0.55 0.45 0.000102718 -2.4771 24.5084
664 1 0.55 0.55 0.000102846 -2.4771 24.5081
789 1 0.566667 0.5 0.0651004 -2.83187 0.00500572
790 1 0.6 0.5 0.000102845 -2.4771 24.5082
791 1 0.616667 0.45 0.0651004 -2.83187 0.00500707
792 1 0.616667 0.55 0.0651005 -2.83187 0.00500588
795 1 0.65 0.45 0.000102704 -2.4771 24.5083
810 1 0.65 0.55 0.000102672 -2.4771 24.5083
915 1 0.666667 0.5 0.0651004 -2.83187 0.00500693
921 1 0.716667 0.45 0.0651004 -2.83187 0.00500647
940 1 0.716667 0.55 0.0651004 -2.83187 0.00500679
942 1 0.7 0.5 0.000102726 -2.4771 24.5084
944 1 0.75 0.55 0.000102796 -2.4771 24.5083
943 1 0.75 0.45 0.000102903 -2.4771 24.5082
1069 1 0.766667 0.5 0.0651005 -2.83187 0.00500465
1070 1 0.8 0.5 0.000102689 -2.4771 24.5085
1071 1 0.816667 0.45 0.0651004 -2.83187 0.00500631
1072 1 0.816667 0.55 0.0651005 -2.83187 0.00500535
1075 1 0.85 0.45 0.000102713 -2.4771 24.5084
1090 1 0.85 0.55 0.000102829 -2.4771 24.5082
1195 1 0.866667 0.5 0.0651004 -2.83187 0.00500689
1201 1 0.916666 0.45 0.0651005 -2.83187 0.00500472
1222 1 0.9 0.5 0.000102697 -2.4771 24.5083
12 1 1 0.5 0.000102708 -2.4771 24.5085
1220 1 0.916667 0.55 0.0651005 -2.83187 0.00500604
1223 1 0.95 0.45 0.000102904 -2.4771 24.508
1224 1 0.95 0.55 0.000102697 -2.4771 24.5084
1338 1 0.966667 0.5 0.0651004 -2.83187 0.00500697
18 1 1.05497e-07 0.7 0.000102736 -2.4771 24.5084
19 1 0.0166668 0.65 0.0651004 -2.83187 0.00500638
21 1 1.68545e-07 0.6 0.000102925 -2.4771 24.508
23 1 0.0499999 0.65 0.000102569 -2.4771 24.5086
95 1 0.0666665 0.7 0.0651004 -2.83187 0.00500603
98 1 0.0666665 0.6 0.0651004 -2.83187 0.00500613
99 1 0.1 0.6 0.000102861 -2.4771 24.5083
101 1 0.116667 0.65 0.0651004 -2.83187 0.0050072
114 1 0.0999999 0.7 0.000102867 -2.4771 24.5082
115 1 0.15 0.65 0.000102748 -2.4771 24.5084
245 1 0.166667 0.7 0.0651005 -2.83187 0.00500528
226 1 0.166667 0.6 0.0651004 -2.83187 0.00500682
246 1 0.2 0.7 0.000102832 -2.4771 24.5082
247 1 0.216667 0.65 0.0651004 -2.83187 0.00500762
249 1 0.2 0.6 0.000102722 -2.4771 24.5083
251 1 0.25 0.65 0.000102692 -2.4771 24.5083
375 1 0.266667 0.7 0.0651004 -2.83187 0.00500669
378 1 0.266667 0.6 0.0651005 -2.83187 0.00500508
379 1 0.3 0.6 0.00010277 -2.4771 24.5083
381 1 0.316666 0.65 0.0651004 -2.83187 0.00500597
394 1 0.3 0.7 0.000102728 -2.4771 24.5084
395 1 0.35 0.65 0.000102836 -2.4771 24.5082
506 1 0.366667 0.6 0.0651004 -2.83187 0.00500738
525 1 0.366667 0.7 0.0651002 -2.83187 0.00500851
526 1 0.4 0.7 0.000102619 -2.4771 24.5085
529 1 0.4 0.6 0.000102888 -2.4771 24.5081
527 1 0.416667 0.65 0.0651004 -2.83187 0.00500668
531 1 0.45 0.65 0.000102879 -2.4771 24.5081
655 1 0.466667 0.7 0.0651005 -2.83187 0.00500595
658 1 0.466667 0.6 0.0651004 -2.83187 0.00500646
659 1 0.5 0.6 0.000102655 -2.4771 24.5084
674 1 0.5 0.7 0.000102763 -2.4771 24.5083
661 1 0.516667 0.65 0.0651004 -2.83187 0.00500537
675 1 0.55 0.65 0.000102744 -2.4771 24.5083
786 1 0.566667 0.6 0.0651004 -2.83187 0.00500681
805 1 0.566667 0.7 0.0651003 -2.83187 0.00500751
806 1 0.6 0.7 0.000102798 -2.4771 24.5084
807 1 0.616667 0.65 0.0651004 -2.83187 0.0050062
809 1 0.6 0.6 0.000102739 -2.4771 24.5081
811 1 0.65 0.65 0.000102794 -2.4771 24.5082
938 1 0.666667 0.6 0.0651004 -2.83187 0.00500598
935 1 0.666667 0.7 0.0651005 -2.83187 0.00500622
939 1 0.7 0.6 0.000102774 -2.4771 24.5082
941 1 0.716667 0.65 0.0651005 -2.83187 0.00500572
954 1 0.7 0.7 0.000102799 -2.4771 24.5083
955 1 0.75 0.65 0.000102693 -2.4771 24.5083
1066 1 0.766667 0.6 0.0651005 -2.83187 0.00500553
1085 1 0.766667 0.7 0.0651003 -2.83187 0.00500749
1086 1 0.8 0.7 0.000102706 -2.4771 24.5083
1087 1 0.816667 0.65 0.0651003 -2.83187 0.0050076
1089 1 0.8 0.6 0.000102727 -2.4771 24.5083
1091 1 0.85 0.65 0.000102819 -2.4771 24.5081
1215 1 0.866667 0.7 0.0651004 -2.83187 0.00500696
1218 1 0.866667 0.6 0.0651005 -2.83187 0.00500506
1219 1 0.9 0.6 0.00010292 -2.4771 24.5081
1234 1 0.9 0.7 0.000102708 -2.4771 24.5084
1221 1 0.916667 0.65 0.0651005 -2.83187 0.00500617
1235 1 0.95 0.65 0.000102837 -2.4771 24.5082
1335 1 0.966667 0.6 0.0651005 -2.83187 0.00500607
1348 1 0.966667 0.7 0.0651004 -2.83187 0.00500721
20 1 0.0166667 0.75 0.0651005 -2.83187 0.00500634
25 1 0.0166666 0.85 0.0651005 -2.83187 0.00500641
28 1 0.0499999 0.75 0.00010271 -2.4771 24.5084
29 1 0.0499999 0.85 0.00010284 -2.4771 24.5082
110 1 0.0666666 0.8 0.0651004 -2.83187 0.00500629
111 1 0.0999998 0.8 0.000102832 -2.4771 24.5082
112 1 0.116667 0.75 0.0651004 -2.83187 0.00500673
113 1 0.116667 0.85 0.0651004 -2.83187 0.00500584
116 1 0.15 0.75 0.000102654 -2.4771 24.5084
119 1 0.15 0.85 0.000102661 -2.4771 24.5083
242 1 0.166667 0.8 0.0651003 -2.83187 0.00500688
248 1 0.216666 0.75 0.0651004 -2.83187 0.00500573
255 1 0.216667 0.85 0.0651002 -2.83187 0.00500813
257 1 0.2 0.8 0.000102633 -2.4771 24.5083
259 1 0.25 0.85 0.000102675 -2.4771 24.5084
258 1 0.25 0.75 0.000102785 -2.4771 24.5081
390 1 0.266667 0.8 0.0651004 -2.83187 0.00500616
391 1 0.3 0.8 0.000102791 -2.4771 24.5083
392 1 0.316667 0.75 0.0651004 -2.83187 0.00500652
393 1 0.316667 0.85 0.0651006 -2.83187 0.00500531
396 1 0.35 0.75 0.000102659 -2.4771 24.5084
399 1 0.35 0.85 0.000102799 -2.4771 24.5082
522 1 0.366667 0.8 0.0651003 -2.83187 0.00500839
535 1 0.416667 0.85 0.0651004 -2.83187 0.00500747
537 1 0.4 0.8 0.000102714 -2.4771 24.5083
528 1 0.416667 0.75 0.0651004 -2.83187 0.00500595
538 1 0.45 0.75 0.000102868 -2.4771 24.5081
539 1 0.45 0.85 0.00010281 -2.4771 24.5082
670 1 0.466667 0.8 0.0651006 -2.83187 0.00500423
671 1 0.5 0.8 0.000102774 -2.4771 24.5082
672 1 0.516667 0.75 0.0651005 -2.83187 0.00500568
673 1 0.516667 0.85 0.0651004 -2.83187 0.00500676
676 1 0.55 0.75 0.000102863 -2.4771 24.5082
679 1 0.55 0.85 0.000102641 -2.4771 24.5084
802 1 0.566667 0.8 0.0651005 -2.83187 0.00500636
808 1 0.616666 0.75 0.0651005 -2.83187 0.00500619
815 1 0.616667 0.85 0.0651005 -2.83187 0.00500636
817 1 0.6 0.8 0.000102965 -2.4771 24.5081
818 1 0.65 0.75 0.00010293 -2.4771 24.5082
819 1 0.65 0.85 0.000102937 -2.4771 24.5081
950 1 0.666667 0.8 0.0651005 -2.83187 0.00500559
951 1 0.7 0.8 0.000102791 -2.4771 24.5083
952 1 0.716667 0.75 0.0651005 -2.83187 0.00500517
953 1 0.716666 0.85 0.0651003 -2.83187 0.00500771
956 1 0.75 0.75 0.00010268 -2.4771 24.5084
959 1 0.75 0.85 0.00010279 -2.4771 24.5081
1082 1 0.766667 0.8 0.0651004 -2.83187 0.00500515
1088 1 0.816667 0.75 0.0651004 -2.83187 0.00500695
1095 1 0.816667 0.85 0.0651005 -2.83187 0.00500501
1097 1 0.8 0.8 0.000102708 -2.4771 24.5084
1098 1 0.85 0.75 0.000102755 -2.4771 24.5083
1099 1 0.85 0.85 0.000102913 -2.4771 24.5081
1230 1 0.866667 0.8 0.0651005 -2.83187 0.00500468
1231 1 0.9 0.8 0.000102718 -2.4771 24.5083
1233 1 0.916667 0.85 0.0651003 -2.83187 0.00500806
27 1 1 0.8 0.000102899 -2.4771 24.5081
1232 1 0.916667 0.75 0.0651004 -2.83187 0.00500667
1236 1 0.95 0.75 0.000102777 -2.4771 24.5081
1239 1 0.95 0.85 0.000102868 -2.4771 24.5081
1345 1 0.966667 0.8 0.0651006 -2.83187 0.00500422
24 1 1.49884e-07 0.9 0.000102833 -2.4771 24.5082
26 1 0.0166667 0.95 0.0651005 -2.83187 0.00500549
30 1 0.0500002 0.95 0.000102724 -2.4771 24.5083
107 1 0.0666668 0.9 0.0651004 -2.83187 0.00500664
117 1 0.116667 0.95 0.0651003 -2.83187 0.00500773
118 1 0.0999998 0.9 0.000102817 -2.4771 24.5082
120 1 0.15 0.95 0.000102731 -2.4771 24.5083
253 1 0.166667 0.9 0.0651004 -2.83187 0.00500512
155 1 0.166667 1 0.0651004 -2.83187 0.00500677
254 1 0.2 0.9 0.00010263 -2.4771 24.5083
256 1 0.216667 0.95 0.0651003 -2.83187 0.00500796
260 1 0.25 0.95 0.000102782 -2.4771 24.5081
387 1 0.266667 0.9 0.0651006 -2.83187 0.00500372
397 1 0.316667 0.95 0.0651005 -2.83187 0.00500661
398 1 0.3 0.9 0.000102946 -2.4771 24.5081
435 1 0.366667 1 0.0651004 -2.83187 0.00500739
400 1 0.35 0.95 0.000102868 -2.4771 24.5083
533 1 0.366667 0.9 0.0651006 -2.83187 0.00500483
534 1 0.4 0.9 0.00010282 -2.4771 24.5083
536 1 0.416667 0.95 0.0651006 -2.83187 0.00500445
587 1 0.466667 1 0.0651004 -2.83187 0.00500696
540 1 0.45 0.95 0.000102862 -2.4771 24.5083
667 1 0.466667 0.9 0.0651004 -2.83187 0.00500658
678 1 0.5 0.9 0.000102665 -2.4771 24.5083
677 1 0.516667 0.95 0.0651004 -2.83187 0.00500568
680 1 0.55 0.95 0.000102774 -2.4771 24.5083
813 1 0.566667 0.9 0.0651003 -2.83187 0.00500718
742 1 0.6 1 0.00010285 -2.4771 24.508
814 1 0.6 0.9 0.000102626 -2.4771 24.5084
816 1 0.616667 0.95 0.0651005 -2.83187 0.00500457
820 1 0.65 0.95 0.000102766 -2.4771 24.5082
947 1 0.666667 0.9 0.0651004 -2.83187 0.00500655
868 1 0.7 1 0.00010271 -2.4771 24.5083
957 1 0.716667 0.95 0.0651003 -2.83187 0.00500721
958 1 0.7 0.9 0.00010255 -2.4771 24.5085
960 1 0.75 0.95 0.000102649 -2.4771 24.5084
995 1 0.766667 1 0.0651004 -2.83187 0.0050068
1022 1 0.8 1 0.0001029 -2.4771 24.5082
1093 1 0.766667 0.9 0.0651004 -2.83187 0.00500625
1094 1 0.8 0.9 0.00010289 -2.4771 24.5082
1096 1 0.816667 0.95 0.0651004 -2.83187 0.00500711
1100 1 0.85 0.95 0.000102692 -2.4771 24.5084
1227 1 0.866667 0.9 0.0651005 -2.83187 0.00500527
1238 1 0.9 0.9 0.000102791 -2.4771 24.5083
1237 1 0.916667 0.95 0.0651004 -2.83187 0.00500647
1240 1 0.95 0.95 0.000102714 -2.4771 24.5084
1350 1 0.966667 0.9 0.0651005 -2.83187 0.00500584
36 1 0.0500001 0.0499997 0.19741 -2.85004 3.81096e-08
44 1 0.0333332 0.0999998 0.131243 -2.8512 2.32575e-06
46 1 0.0833335 0.0499999 0.131243 -2.8512 2.32537e-06
150 1 0.1 0.1 0.19741 -2.85004 3.57554e-08
151 1 0.133333 0.1 0.131243 -2.8512 2.37397e-06
152 1 0.15 0.0499999 0.19741 -2.85004 3.42588e-08
156 1 0.183333 0.05 0.131243 -2.8512 2.34364e-06
280 1 0.2 0.1 0.19741 -2.85004 3.86541e-08
284 1 0.233333 1.11071e-07 0.131243 -2.8512 2.34884e-06
285 1 0.25 0.0499999 0.19741 -2.85004 3.57201e-08
303 1 0.233333 0.1 0.131243 -2.8512 2.33205e-06
305 1 0.283333 0.0500002 0.131243 -2.8512 2.31076e-06
430 1 0.3 0.1 0.19741 -2.85004 3.79765e-08
431 1 0.333333 0.1 0.131243 -2.8512 2.36951e-06
434 1 0.333333 2.24051e-07 0.131243 -2.8512 2.35574e-06
432 1 0.35 0.0500003 0.19741 -2.85004 3.55499e-08
436 1 0.383333 0.0499999 0.131243 -2.8512 2.33915e-06
560 1 0.4 0.0999997 0.19741 -2.85004 3.68541e-08
563 1 0.4 7.79891e-08 0.19741 -2.85004 3.37286e-08
564 1 0.433333 3.30343e-07 0.131243 -2.8512 2.38288e-06
565 1 0.45 0.0499997 0.19741 -2.85003 3.52115e-08
583 1 0.433333 0.1 0.131243 -2.8512 2.33237e-06
585 1 0.483333 0.05 0.131243 -2.8512 2.38816e-06
710 1 0.5 0.0999998 0.19741 -2.85004 3.75659e-08
711 1 0.533333 0.1 0.131243 -2.8512 2.30777e-06
712 1 0.55 0.0499998 0.19741 -2.85004 3.57677e-08
714 1 0.533333 1.10326e-07 0.131243 -2.8512 2.32417e-06
716 1 0.583333 0.0499998 0.131243 -2.8512 2.35443e-06
840 1 0.6 0.1 0.19741 -2.85004 3.68133e-08
844 1 0.633333 2.24635e-08 0.131243 -2.8512 2.35823e-06
845 1 0.65 0.0499997 0.19741 -2.85004 4.22909e-08
863 1 0.633333 0.1 0.131243 -2.8512 2.33481e-06
865 1 0.683333 0.0500003 0.131243 -2.8512 2.37882e-06
975 1 0.7 1.52396e-07 0.19741 -2.85004 3.61767e-08
990 1 0.7 0.0999998 0.19741 -2.85003 3.44622e-08
991 1 0.733333 0.1 0.131243 -2.8512 2.34368e-06
992 1 0.75 0.0499997 0.19741 -2.85004 3.96419e-08
994 1 0.733333 7.73562e-08 0.131243 -2.8512 2.35051e-06
996 1 0.783333 0.0499999 0.131243 -2.8512 2.35928e-06
1120 1 0.8 0.1 0.19741 -2.85004 3.53146e-08
1123 1 0.8 3.23937e-07 0.19741 -2.85004 3.92876e-08
1143 1 0.833333 0.1 0.131243 -2.8512 2.32174e-06
1125 1 0.85 0.05 0.19741 -2.85004 3.55524e-08
1145 1 0.883333 0.0500002 0.131243 -2.8512 2.36068e-06
1255 1 0.9 1.558e-07 0.19741 -2.85004 3.1847e-08
1270 1 0.9 0.1 0.19741 -2.85004 4.102e-08
31 1 1 0.1 0.19741 -2.85004 3.42511e-08
1271 1 0.933333 0.0999997 0.131243 -2.8512 2.3467e-06
1272 1 0.95 0.0500003 0.19741 -2.85003 3.98193e-08
1274 1 0.933333 1.27782e-07 0.131243 -2.8512 2.35746e-06
1276 1 0.983333 0.0500001 0.131243 -2.8512 2.33066e-06
40 1 1.2092e-07 0.2 0.19741 -2.85004 3.51806e-08
41 1 0.0333335 0.2 0.131243 -2.8512 2.32139e-06
42 1 0.0500001 0.15 0.19741 -2.85004 3.86156e-08
43 1 0.05 0.25 0.19741 -2.85004 3.71515e-08
47 1 0.0833333 0.15 0.131243 -2.8512 2.34961e-06
60 1 0.0833333 0.25 0.131243 -2.8512 2.34242e-06
147 1 0.0999999 0.2 0.19741 -2.85004 3.86817e-08
153 1 0.15 0.15 0.19741 -2.85003 3.25128e-08
172 1 0.15 0.25 0.19741 -2.85004 3.35873e-08
174 1 0.133333 0.2 0.131243 -2.8512 2.3701e-06
176 1 0.183333 0.15 0.131243 -2.8512 2.32565e-06
177 1 0.183333 0.25 0.131243 -2.8512 2.36085e-06
299 1 0.2 0.2 0.19741 -2.85004 3.79117e-08
300 1 0.233333 0.2 0.131243 -2.8512 2.34267e-06
301 1 0.25 0.15 0.19741 -2.85004 3.80851e-08
302 1 0.25 0.25 0.19741 -2.85004 3.99413e-08
306 1 0.283333 0.15 0.131243 -2.8512 2.34688e-06
329 1 0.283333 0.25 0.131243 -2.8512 2.35142e-06
427 1 0.3 0.2 0.19741 -2.85004 3.53491e-08
454 1 0.333333 0.2 0.131243 -2.8512 2.38287e-06
433 1 0.35 0.15 0.19741 -2.85004 3.87229e-08
452 1 0.35 0.25 0.19741 -2.85003 3.76885e-08
456 1 0.383333 0.15 0.131243 -2.8512 2.32777e-06
457 1 0.383333 0.25 0.131243 -2.8512 2.34328e-06
579 1 0.4 0.2 0.19741 -2.85004 3.35312e-08
580 1 0.433333 0.2 0.131243 -2.8512 2.34353e-06
581 1 0.45 0.15 0.19741 -2.85004 3.98141e-08
582 1 0.45 0.25 0.19741 -2.85004 4.20332e-08
586 1 0.483333 0.15 0.131243 -2.8512 2.33005e-06
609 1 0.483333 0.25 0.131243 -2.8512 2.34663e-06
707 1 0.5 0.2 0.19741 -2.85004 3.66067e-08
713 1 0.55 0.15 0.19741 -2.85004 4.13078e-08
732 1 0.55 0.25 0.19741 -2.85004 3.86961e-08
734 1 0.533333 0.2 0.131243 -2.8512 2.32858e-06
737 1 0.583333 0.25 0.131243 -2.8512 2.34217e-06
736 1 0.583333 0.15 0.131243 -2.8512 2.36064e-06
859 1 0.6 0.2 0.19741 -2.85004 3.46269e-08
860 1 0.633333 0.2 0.131243 -2.8512 2.32284e-06
861 1 0.65 0.15 0.19741 -2.85004 3.30417e-08
862 1 0.65 0.25 0.19741 -2.85004 3.97769e-08
866 1 0.683333 0.15 0.131243 -2.8512 2.34567e-06
889 1 0.683333 0.25 0.131243 -2.8512 2.36654e-06
987 1 0.7 0.2 0.19741 -2.85004 3.70904e-08
993 1 0.75 0.15 0.19741 -2.85004 4.40672e-08
1012 1 0.75 0.25 0.19741 -2.85004 3.9695e-08
1014 1 0.733333 0.2 0.131243 -2.8512 2.37853e-06
1016 1 0.783333 0.15 0.131243 -2.8512 2.35173e-06
1017 1 0.783333 0.25 0.131243 -2.8512 2.31804e-06
1139 1 0.8 0.2 0.19741 -2.85004 3.14843e-08
1140 1 0.833333 0.2 0.131243 -2.8512 2.35553e-06
1141 1 0.85 0.15 0.19741 -2.85004 3.90952e-08
1142 1 0.85 0.25 0.19741 -2.85004 3.89253e-08
1146 1 0.883333 0.15 0.131243 -2.8512 2.32576e-06
1169 1 0.883333 0.25 0.131243 -2.8512 2.33787e-06
1267 1 0.9 0.2 0.19741 -2.85004 3.33888e-08
1273 1 0.95 0.15 0.19741 -2.85004 3.82822e-08
1292 1 0.95 0.25 0.19741 -2.85004 3.53748e-08
1294 1 0.933333 0.2 0.131243 -2.8512 2.35483e-06
1296 1 0.983333 0.15 0.131243 -2.8512 2.35524e-06
1297 1 0.983333 0.25 0.131243 -2.8512 2.36677e-06
54 1 1.27527e-07 0.4 0.19741 -2.85004 3.638e-08
55 1 0.0333334 0.4 0.131243 -2.8512 2.34018e-06
56 1 0.0500002 0.35 0.19741 -2.85004 3.83865e-08
58 1 0.0333334 0.3 0.131243 -2.8512 2.38158e-06
61 1 0.0833334 0.35 0.131243 -2.8512 2.34233e-06
167 1 0.0999999 0.4 0.19741 -2.85004 4.15627e-08
170 1 0.1 0.3 0.19741 -2.85004 3.98395e-08
171 1 0.133333 0.3 0.131243 -2.8512 2.34212e-06
173 1 0.15 0.35 0.19741 -2.85004 3.94294e-08
201 1 0.133333 0.4 0.131243 -2.8512 2.36359e-06
203 1 0.183333 0.35 0.131243 -2.8512 2.36187e-06
296 1 0.2 0.3 0.19741 -2.85004 3.15782e-08
323 1 0.2 0.4 0.19741 -2.85004 3.98982e-08
324 1 0.233333 0.4 0.131243 -2.8512 2.35009e-06
325 1 0.25 0.35 0.19741 -2.85004 3.77269e-08
327 1 0.233333 0.3 0.131243 -2.8512 2.3364e-06
330 1 0.283333 0.35 0.131243 -2.8512 2.36237e-06
447 1 0.3 0.4 0.19741 -2.85004 3.78251e-08
450 1 0.3 0.3 0.19741 -2.85004 3.74484e-08
451 1 0.333333 0.3 0.131243 -2.8512 2.37422e-06
481 1 0.333333 0.4 0.131243 -2.8512 2.34122e-06
453 1 0.35 0.35 0.19741 -2.85004 3.55395e-08
483 1 0.383333 0.35 0.131243 -2.8512 2.35954e-06
576 1 0.4 0.3 0.19741 -2.85004 3.52595e-08
603 1 0.4 0.4 0.19741 -2.85004 3.27278e-08
604 1 0.433333 0.4 0.131243 -2.8512 2.33662e-06
605 1 0.45 0.35 0.19741 -2.85004 3.83977e-08
607 1 0.433334 0.3 0.131243 -2.8512 2.31571e-06
610 1 0.483333 0.35 0.131243 -2.8512 2.37388e-06
727 1 0.5 0.4 0.197409 -2.85004 3.16161e-08
730 1 0.5 0.3 0.19741 -2.85004 3.89793e-08
731 1 0.533333 0.3 0.131243 -2.8512 2.36845e-06
733 1 0.55 0.35 0.19741 -2.85003 3.5272e-08
761 1 0.533333 0.4 0.131243 -2.8512 2.35479e-06
763 1 0.583333 0.35 0.131243 -2.8512 2.3381e-06
856 1 0.6 0.3 0.19741 -2.85004 3.68553e-08
883 1 0.6 0.4 0.19741 -2.85004 4.33121e-08
884 1 0.633333 0.4 0.131243 -2.8512 2.33434e-06
885 1 0.65 0.35 0.19741 -2.85003 3.44701e-08
887 1 0.633333 0.3 0.131243 -2.8512 2.39293e-06
890 1 0.683333 0.35 0.131243 -2.8512 2.31793e-06
1007 1 0.7 0.4 0.19741 -2.85004 3.82654e-08
1010 1 0.7 0.3 0.19741 -2.85004 3.22367e-08
1011 1 0.733333 0.3 0.131243 -2.8512 2.3366e-06
1041 1 0.733333 0.4 0.131243 -2.8512 2.35517e-06
1013 1 0.75 0.35 0.19741 -2.85004 3.30542e-08
1043 1 0.783333 0.35 0.131243 -2.8512 2.38363e-06
1136 1 0.8 0.3 0.19741 -2.85004 4.0511e-08
1163 1 0.8 0.4 0.19741 -2.85004 3.56823e-08
1167 1 0.833333 0.3 0.131243 -2.8512 2.37641e-06
1164 1 0.833333 0.4 0.131243 -2.8512 2.34385e-06
1165 1 0.85 0.35 0.19741 -2.85004 3.97914e-08
1170 1 0.883333 0.35 0.131243 -2.8512 2.38176e-06
1287 1 0.9 0.4 0.19741 -2.85004 3.80428e-08
1290 1 0.9 0.3 0.19741 -2.85004 3.39414e-08
37 1 1 0.3 0.19741 -2.85004 3.43545e-08
1291 1 0.933333 0.3 0.131243 -2.8512 2.30249e-06
1293 1 0.95 0.35 0.19741 -2.85004 4.12042e-08
1316 1 0.933333 0.4 0.131243 -2.8512 2.36374e-06
1318 1 0.983333 0.35 0.131243 -2.8512 2.32012e-06
51 1 6.51706e-08 0.5 0.19741 -2.85004 3.62228e-08
57 1 0.0500001 0.45 0.19741 -2.85003 3.64307e-08
74 1 0.0499999 0.55 0.19741 -2.85004 3.37616e-08
76 1 0.0333333 0.5 0.131243 -2.8512 2.36011e-06
78 1 0.0833333 0.45 0.131243 -2.8512 2.35239e-06
79 1 0.0833332 0.55 0.131243 -2.8512 2.34523e-06
197 1 0.1 0.5 0.19741 -2.85004 3.68139e-08
198 1 0.133333 0.5 0.131243 -2.8512 2.34404e-06
199 1 0.15 0.45 0.19741 -2.85004 3.64634e-08
200 1 0.15 0.55 0.19741 -2.85004 3.92759e-08
204 1 0.183333 0.45 0.131243 -2.8512 2.34712e-06
227 1 0.183333 0.55 0.131243 -2.8512 2.38299e-06
320 1 0.2 0.5 0.19741 -2.85003 3.34137e-08
326 1 0.25 0.45 0.19741 -2.85004 3.52185e-08
352 1 0.25 0.55 0.19741 -2.85004 4.042e-08
354 1 0.233333 0.5 0.131243 -2.8512 2.34777e-06
356 1 0.283333 0.45 0.131243 -2.8512 2.3092e-06
357 1 0.283333 0.55 0.131243 -2.8512 2.33076e-06
477 1 0.3 0.5 0.19741 -2.85004 3.43129e-08
478 1 0.333333 0.5 0.131243 -2.8512 2.39145e-06
479 1 0.35 0.45 0.19741 -2.85004 3.23795e-08
480 1 0.35 0.55 0.19741 -2.85004 4.16958e-08
484 1 0.383333 0.45 0.131243 -2.8512 2.32744e-06
507 1 0.383333 0.55 0.131243 -2.8512 2.33395e-06
600 1 0.4 0.5 0.19741 -2.85004 3.66861e-08
606 1 0.45 0.45 0.19741 -2.85004 4.00746e-08
632 1 0.45 0.55 0.19741 -2.85004 3.45525e-08
634 1 0.433333 0.5 0.131243 -2.8512 2.35279e-06
636 1 0.483333 0.45 0.131243 -2.8512 2.32137e-06
637 1 0.483333 0.55 0.131243 -2.8512 2.36213e-06
757 1 0.5 0.5 0.19741 -2.85004 3.83306e-08
758 1 0.533333 0.5 0.131243 -2.8512 2.32282e-06
759 1 0.55 0.45 0.19741 -2.85004 3.72232e-08
760 1 0.55 0.55 0.19741 -2.85003 4.18007e-08
764 1 0.583333 0.45 0.131242 -2.8512 2.41121e-06
787 1 0.583333 0.55 0.131243 -2.8512 2.37131e-06
880 1 0.6 0.5 0.197409 -2.85004 3.3086e-08
886 1 0.65 0.45 0.19741 -2.85004 4.40466e-08
912 1 0.65 0.55 0.19741 -2.85004 3.99545e-08
914 1 0.633333 0.5 0.131243 -2.8512 2.29392e-06
916 1 0.683333 0.45 0.131243 -2.8512 2.34983e-06
917 1 0.683333 0.55 0.131243 -2.8512 2.35325e-06
1037 1 0.7 0.5 0.19741 -2.85004 3.59798e-08
1038 1 0.733333 0.5 0.131243 -2.8512 2.35359e-06
1039 1 0.75 0.45 0.19741 -2.85004 3.21937e-08
1040 1 0.75 0.55 0.19741 -2.85004 3.54962e-08
1044 1 0.783333 0.45 0.131243 -2.8512 2.32463e-06
1067 1 0.783333 0.55 0.131243 -2.8512 2.3541e-06
1160 1 0.8 0.5 0.19741 -2.85004 3.74194e-08
1194 1 0.833333 0.5 0.131243 -2.8512 2.34557e-06
1166 1 0.85 0.45 0.19741 -2.85004 3.82465e-08
1192 1 0.85 0.55 0.19741 -2.85004 3.47806e-08
1196 1 0.883333 0.45 0.131243 -2.8512 2.3128e-06
1197 1 0.883333 0.55 0.131243 -2.8512 2.35485e-06
1312 1 0.9 0.5 0.19741 -2.85004 3.37393e-08
1313 1 0.933333 0.5 0.131243 -2.8512 2.31967e-06
1314 1 0.95 0.45 0.19741 -2.85004 3.39116e-08
1315 1 0.95 0.55 0.19741 -2.85004 3.75384e-08