ITEM: TIMESTEP
117
ITEM: NUMBER OF ATOMS
3200
ITEM: BOX BOUNDS pp pp ss
0.0000000000000000e+00 5.0092067021360698e+01
0.0000000000000000e+00 2.8920668379047399e+01
-1.5671243861047840e-01 3.5533785112952430e+01
ITEM: ATOMS id type xs ys zs c_peratom c_csym
1 1 1.55566e-07 0.0999997 0.000102755 -2.4771 24.5082
2 1 0.0166667 0.0500003 0.0651005 -2.83187 0.00500481
5 1 0.0499998 0.0500001 0.000102696 -2.4771 24.5083
45 1 0.0666666 0.0999999 0.0651005 -2.83187 0.0050048
48 1 0.0666665 1.55797e-07 0.0651004 -2.83187 0.00500691
49 1 0.0999999 1.02684e-07 0.000102652 -2.4771 24.5084
50 1 0.116667 0.0499997 0.0651004 -2.83187 0.00500604
66 1 0.0999998 0.0999999 0.000102768 -2.4771 24.5083
67 1 0.15 0.0500002 0.0001029 -2.4771 24.5082
178 1 0.166667 0.1 0.0651004 -2.83187 0.00500709
179 1 0.2 0.1 0.000102745 -2.4771 24.5082
180 1 0.216667 0.0500002 0.0651004 -2.83187 0.00500578
182 1 0.2 1.84467e-07 0.000102791 -2.4771 24.5082
183 1 0.25 0.0500001 0.000102646 -2.4771 24.5084
304 1 0.266667 0.0999997 0.0651003 -2.83187 0.00500777
307 1 0.266666 3.81866e-09 0.0651004 -2.83187 0.00500593
308 1 0.3 7.36748e-08 0.000102836 -2.4771 24.5083
309 1 0.316666 0.0499998 0.0651006 -2.83187 0.00500481
335 1 0.3 0.0999999 0.000102797 -2.4771 24.5083
336 1 0.35 0.0499997 0.000102964 -2.4771 24.5081
458 1 0.366667 0.0999999 0.0651004 -2.83187 0.00500734
459 1 0.4 0.1 0.000102697 -2.4771 24.5084
460 1 0.416666 0.0500002 0.0651006 -2.83187 0.00500409
462 1 0.4 2.26768e-07 0.0001028 -2.4771 24.5083
463 1 0.45 0.05 0.000102914 -2.4771 24.5081
584 1 0.466667 0.1 0.0651005 -2.83187 0.00500528
588 1 0.5 7.99778e-08 0.000102703 -2.4771 24.5084
615 1 0.5 0.0999999 0.000102866 -2.4771 24.5082
589 1 0.516667 0.0499997 0.0651004 -2.83187 0.00500656
616 1 0.55 0.0500002 0.000102794 -2.4771 24.5083
715 1 0.566667 1.20563e-09 0.0651004 -2.83187 0.00500729
738 1 0.566667 0.1 0.0651005 -2.83187 0.00500566
739 1 0.6 0.1 0.000102925 -2.4771 24.5081
740 1 0.616667 0.0500001 0.0651004 -2.83187 0.00500667
743 1 0.65 0.05 0.000102686 -2.4771 24.5085
864 1 0.666667 0.1 0.0651004 -2.83187 0.00500664
867 1 0.666667 6.82114e-08 0.0651004 -2.83187 0.00500583
869 1 0.716667 0.0499999 0.0651004 -2.83187 0.00500601
895 1 0.7 0.1 0.000102773 -2.4771 24.5083
896 1 0.75 0.0500003 0.000102886 -2.4771 24.5081
1018 1 0.766667 0.1 0.0651004 -2.83187 0.00500721
1019 1 0.8 0.0999999 0.000102831 -2.4771 24.5082
1020 1 0.816667 0.05 0.0651006 -2.83187 0.00500433
1023 1 0.85 0.0499997 0.000102706 -2.4771 24.5083
1144 1 0.866667 0.1 0.0651004 -2.83187 0.00500715
1147 1 0.866667 2.39766e-07 0.0651005 -2.83187 0.00500481
1148 1 0.9 9.55149e-08 0.000102833 -2.4771 24.5082
1149 1 0.916667 0.0499998 0.0651004 -2.83187 0.00500642
1175 1 0.9 0.1 0.000102861 -2.4771 24.5081
4 1 1 3.22296e-08 0.000102835 -2.4771 24.5082
1176 1 0.95 0.0499998 0.000102717 -2.4771 24.5083
1275 1 0.966667 5.9967e-08 0.0651004 -2.83187 0.0050069
1298 1 0.966667 0.0999997 0.0651003 -2.83187 0.00500798
3 1 0.0166665 0.15 0.0651004 -2.83187 0.00500678
7 1 0.0166668 0.25 0.0651004 -2.83187 0.00500664
10 1 0.05 0.15 0.000102774 -2.4771 24.5082
11 1 0.05 0.25 0.00010267 -2.4771 24.5084
62 1 0.0666665 0.2 0.0651003 -2.83187 0.00500769
63 1 0.1 0.2 0.000102796 -2.4771 24.5082
64 1 0.116667 0.15 0.0651004 -2.83187 0.00500604
65 1 0.116667 0.25 0.0651005 -2.83187 0.00500518
68 1 0.15 0.15 0.00010277 -2.4771 24.5084
85 1 0.15 0.25 0.000102935 -2.4771 24.508
175 1 0.166667 0.2 0.0651005 -2.83187 0.00500482
181 1 0.216667 0.15 0.0651005 -2.83187 0.00500531
207 1 0.216667 0.25 0.0651003 -2.83187 0.00500812
209 1 0.2 0.2 0.000102763 -2.4771 24.5082
210 1 0.25 0.15 0.000102704 -2.4771 24.5083
211 1 0.25 0.25 0.000102779 -2.4771 24.5082
331 1 0.266667 0.2 0.0651004 -2.83187 0.00500576
332 1 0.3 0.2 0.000102684 -2.4771 24.5084
333 1 0.316667 0.15 0.0651004 -2.83187 0.00500676
334 1 0.316667 0.25 0.0651003 -2.83187 0.0050066
337 1 0.35 0.15 0.000102817 -2.4771 24.5082
363 1 0.35 0.25 0.000102768 -2.4771 24.5083
455 1 0.366667 0.2 0.0651004 -2.83187 0.00500578
461 1 0.416667 0.15 0.0651004 -2.83187 0.00500589
489 1 0.4 0.2 0.000102673 -2.4771 24.5083
487 1 0.416667 0.25 0.0651004 -2.83187 0.00500613
490 1 0.45 0.15 0.000102652 -2.4771 24.5084
491 1 0.45 0.25 0.000102756 -2.4771 24.5083
611 1 0.466667 0.2 0.0651003 -2.83187 0.00500759
612 1 0.5 0.2 0.000102671 -2.4771 24.5084
613 1 0.516667 0.15 0.0651004 -2.83187 0.00500663
614 1 0.516667 0.25 0.0651005 -2.83187 0.00500521
617 1 0.55 0.15 0.000102707 -2.4771 24.5085
643 1 0.55 0.25 0.000102817 -2.4771 24.5082
735 1 0.566666 0.2 0.0651004 -2.83187 0.00500749
741 1 0.616667 0.15 0.0651004 -2.83187 0.00500659
767 1 0.616667 0.25 0.0651006 -2.83187 0.00500423
769 1 0.6 0.2 0.000102826 -2.4771 24.5083
770 1 0.65 0.15 0.000102659 -2.4771 24.5084
771 1 0.65 0.25 0.000102916 -2.4771 24.5082
891 1 0.666667 0.2 0.0651004 -2.83187 0.00500717
892 1 0.7 0.2 0.000102854 -2.4771 24.5081
893 1 0.716667 0.15 0.0651004 -2.83187 0.00500653
894 1 0.716667 0.25 0.0651005 -2.83187 0.00500515
897 1 0.75 0.15 0.000102861 -2.4771 24.5082
923 1 0.75 0.25 0.000102756 -2.4771 24.5082
1015 1 0.766667 0.2 0.0651004 -2.83187 0.00500644
1021 1 0.816667 0.15 0.0651004 -2.83187 0.0050059
1047 1 0.816667 0.25 0.0651004 -2.83187 0.00500671
1049 1 0.8 0.2 0.00010266 -2.4771 24.5084
1050 1 0.85 0.15 0.000102586 -2.4771 24.5086
1051 1 0.85 0.25 0.000102906 -2.4771 24.5082
1171 1 0.866667 0.2 0.0651005 -2.83187 0.00500574
1172 1 0.9 0.2 0.000102873 -2.4771 24.5082
9 1 1 0.2 0.000102649 -2.4771 24.5084
1173 1 0.916667 0.15 0.0651006 -2.83187 0.00500549
1174 1 0.916667 0.25 0.0651004 -2.83187 0.00500722
1177 1 0.95 0.15 0.000102885 -2.4771 24.5082
1203 1 0.95 0.25 0.000102832 -2.4771 24.5081
1295 1 0.966667 0.2 0.0651005 -2.83187 0.00500472
6 1 6.51908e-08 0.3 0.000102921 -2.4771 24.5081
8 1 0.0166665 0.35 0.0651005 -2.83187 0.00500586
16 1 0.05 0.35 0.000102955 -2.4771 24.5081
59 1 0.0666669 0.3 0.0651004 -2.83187 0.00500667
80 1 0.0666666 0.4 0.0651005 -2.83187 0.00500519
81 1 0.0999999 0.4 0.000102781 -2.4771 24.5082
82 1 0.116667 0.35 0.0651003 -2.83187 0.00500746
84 1 0.1 0.3 0.000102591 -2.4771 24.5085
86 1 0.15 0.35 0.000102729 -2.4771 24.5083
202 1 0.166667 0.4 0.0651004 -2.83187 0.00500612
205 1 0.166667 0.3 0.0651005 -2.83187 0.00500529
206 1 0.2 0.3 0.000102811 -2.4771 24.5082
208 1 0.216667 0.35 0.0651005 -2.83187 0.00500579
233 1 0.2 0.4 0.000102834 -2.4771 24.5082
234 1 0.25 0.35 0.000102673 -2.4771 24.5084
328 1 0.266667 0.3 0.0651004 -2.83187 0.00500652
358 1 0.266667 0.4 0.0651004 -2.83187 0.00500693
359 1 0.3 0.4 0.000102746 -2.4771 24.5082
360 1 0.316667 0.35 0.0651004 -2.83187 0.00500594
362 1 0.3 0.3 0.000102693 -2.4771 24.5082
364 1 0.35 0.35 0.000102815 -2.4771 24.5082
482 1 0.366667 0.4 0.0651005 -2.83187 0.00500526
485 1 0.366667 0.3 0.0651003 -2.83187 0.00500744
486 1 0.4 0.3 0.000102781 -2.4771 24.5082
513 1 0.4 0.4 0.000102729 -2.4771 24.5083
488 1 0.416667 0.35 0.0651004 -2.83187 0.00500651
514 1 0.45 0.35 0.00010263 -2.4771 24.5083
608 1 0.466667 0.3 0.0651004 -2.83187 0.00500672
638 1 0.466667 0.4 0.0651003 -2.83187 0.0050068
639 1 0.5 0.4 0.000102804 -2.4771 24.5081
642 1 0.5 0.3 0.000102736 -2.4771 24.5083
640 1 0.516667 0.35 0.0651003 -2.83187 0.00500722
644 1 0.55 0.35 0.000102622 -2.4771 24.5084
762 1 0.566667 0.4 0.0651003 -2.83187 0.0050071
765 1 0.566667 0.3 0.0651005 -2.83187 0.00500493
766 1 0.6 0.3 0.000102942 -2.4771 24.5081
768 1 0.616667 0.35 0.0651004 -2.83187 0.00500658
793 1 0.6 0.4 0.000102767 -2.4771 24.5083
794 1 0.65 0.35 0.000102719 -2.4771 24.5084
888 1 0.666667 0.3 0.0651005 -2.83187 0.00500571
918 1 0.666667 0.4 0.0651005 -2.83187 0.00500568
919 1 0.7 0.4 0.000102852 -2.4771 24.5081
920 1 0.716667 0.35 0.0651004 -2.83187 0.00500691
922 1 0.7 0.3 0.000102697 -2.4771 24.5084
924 1 0.75 0.35 0.000102872 -2.4771 24.5082
1042 1 0.766667 0.4 0.0651005 -2.83187 0.00500547
1045 1 0.766667 0.3 0.0651004 -2.83187 0.00500675
1046 1 0.8 0.3 0.000102783 -2.4771 24.5083
1048 1 0.816667 0.35 0.0651004 -2.83187 0.00500647
1073 1 0.8 0.4 0.000102814 -2.4771 24.5083
1074 1 0.85 0.35 0.000102917 -2.4771 24.5081
1168 1 0.866667 0.3 0.0651005 -2.83187 0.0050057
1198 1 0.866667 0.4 0.0651004 -2.83187 0.00500762
1199 1 0.9 0.4 0.000102769 -2.4771 24.5081
1202 1 0.9 0.3 0.000102698 -2.4771 24.5084
15 1 1 0.4 0.000102659 -2.4771 24.5084
1200 1 0.916667 0.35 0.0651003 -2.83187 0.0050072
1204 1 0.95 0.35 0.000102559 -2.4771 24.5085
1317 1 0.966667 0.4 0.0651005 -2.83187 0.00500437
1320 1 0.966667 0.3 0.0651004 -2.83187 0.00500643
13 1 0.0166665 0.45 0.0651003 -2.83187 0.00500755
14 1 0.0166666 0.55 0.0651004 -2.83187 0.00500653
17 1 0.0500002 0.45 0.000102791 -2.4771 24.5081
22 1 0.0500002 0.55 0.000102876 -2.4771 24.5081
77 1 0.0666668 0.5 0.0651005 -2.83187 0.0050057
83 1 0.116667 0.45 0.0651004 -2.83187 0.00500637
100 1 0.116667 0.55 0.0651005 -2.83187 0.0050054
102 1 0.0999999 0.5 0.000102723 -2.4771 24.5084
103 1 0.15 0.45 0.000102705 -2.4771 24.5083
104 1 0.15 0.55 0.000102838 -2.4771 24.5082
229 1 0.166667 0.5 0.0651004 -2.83187 0.00500711
230 1 0.2 0.5 0.000102788 -2.4771 24.5083
231 1 0.216667 0.45 0.0651004 -2.83187 0.00500624
232 1 0.216667 0.55 0.0651005 -2.83187 0.0050054
250 1 0.25 0.55 0.000102773 -2.4771 24.5083
235 1 0.25 0.45 0.00010279 -2.4771 24.5084
355 1 0.266667 0.5 0.0651005 -2.83187 0.00500655
361 1 0.316667 0.45 0.0651005 -2.83187 0.0050054
380 1 0.316667 0.55 0.0651004 -2.83187 0.0050076
382 1 0.3 0.5 0.00010283 -2.4771 24.5082
383 1 0.35 0.45 0.000102933 -2.4771 24.5081
384 1 0.35 0.55 0.00010288 -2.4771 24.5082
509 1 0.366667 0.5 0.0651006 -2.83187 0.00500429
510 1 0.4 0.5 0.000102781 -2.4771 24.5082
511 1 0.416667 0.45 0.0651003 -2.83187 0.00500787
512 1 0.416667 0.55 0.0651006 -2.83187 0.00500387
515 1 0.45 0.45 0.000102647 -2.4771 24.5083
530 1 0.45 0.55 0.000102722 -2.4771 24.5082
635 1 0.466667 0.5 0.0651003 -2.83187 0.0050074
662 1 0.5 0.5 0.000102719 -2.4771 24.5082
641 1 0.516667 0.45 0.0651005 -2.83187 0.00500515
660 1 0.516667 0.55 0.0651004 -2.83187 0.00500619
663 1 0.55 0.45 0.000102714 -2.4771 24.5084
664 1 0.55 0.55 0.000102856 -2.4771 24.5081
789 1 0.566667 0.5 0.0651004 -2.83187 0.0050057
790 1 0.6 0.5 0.000102836 -2.4771 24.5082
791 1 0.616667 0.45 0.0651004 -2.83187 0.0050071
792 1 0.616667 0.55 0.0651004 -2.83187 0.00500592
795 1 0.65 0.45 0.000102688 -2.4771 24.5083
810 1 0.65 0.55 0.000102645 -2.4771 24.5083
915 1 0.666667 0.5 0.0651004 -2.83187 0.005007
921 1 0.716667 0.45 0.0651004 -2.83187 0.00500648
940 1 0.716667 0.55 0.0651004 -2.83187 0.00500684
942 1 0.7 0.5 0.000102711 -2.4771 24.5084
944 1 0.75 0.55 0.000102775 -2.4771 24.5083
943 1 0.75 0.45 0.000102902 -2.4771 24.5082
1069 1 0.766667 0.5 0.0651005 -2.83187 0.0050047
1070 1 0.8 0.5 0.00010268 -2.4771 24.5085
1071 1 0.816667 0.45 0.0651004 -2.83187 0.00500633
1072 1 0.816667 0.55 0.0651005 -2.83187 0.00500542
1075 1 0.85 0.45 0.000102702 -2.4771 24.5084
1090 1 0.85 0.55 0.000102826 -2.4771 24.5082
1195 1 0.866667 0.5 0.0651004 -2.83187 0.00500688
1201 1 0.916666 0.45 0.0651005 -2.83187 0.00500473
1222 1 0.9 0.5 0.00010269 -2.4771 24.5083
12 1 1 0.5 0.000102691 -2.4771 24.5085
1220 1 0.916667 0.55 0.0651005 -2.83187 0.00500601
1223 1 0.95 0.45 0.000102889 -2.4771 24.508
1224 1 0.95 0.55 0.000102699 -2.4771 24.5083
1338 1 0.966667 0.5 0.0651004 -2.83187 0.00500698
18 1 1.05497e-07 0.7 0.000102727 -2.4771 24.5084
19 1 0.0166668 0.65 0.0651004 -2.83187 0.00500644
21 1 1.68545e-07 0.6 0.000102908 -2.4771 24.508
23 1 0.0499999 0.65 0.00010256 -2.4771 24.5086
95 1 0.0666665 0.7 0.0651004 -2.83187 0.00500607
98 1 0.0666665 0.6 0.0651004 -2.83187 0.00500615
99 1 0.1 0.6 0.000102859 -2.4771 24.5083
101 1 0.116667 0.65 0.0651004 -2.83187 0.0050072
114 1 0.0999999 0.7 0.000102855 -2.4771 24.5082
115 1 0.15 0.65 0.000102759 -2.4771 24.5084
245 1 0.166667 0.7 0.0651005 -2.83187 0.00500521
226 1 0.166667 0.6 0.0651004 -2.83187 0.00500681
246 1 0.2 0.7 0.000102851 -2.4771 24.5082
247 1 0.216667 0.65 0.0651004 -2.83187 0.0050076
249 1 0.2 0.6 0.000102737 -2.4771 24.5083
251 1 0.25 0.65 0.000102702 -2.4771 24.5083
375 1 0.266667 0.7 0.0651004 -2.83187 0.0050067
378 1 0.266667 0.6 0.0651005 -2.83187 0.00500508
379 1 0.3 0.6 0.000102767 -2.4771 24.5083
381 1 0.316666 0.65 0.0651004 -2.83187 0.00500599
394 1 0.3 0.7 0.000102733 -2.4771 24.5084
395 1 0.35 0.65 0.000102827 -2.4771 24.5082
506 1 0.366667 0.6 0.0651004 -2.83187 0.00500743
525 1 0.366667 0.7 0.0651002 -2.83187 0.00500854
526 1 0.4 0.7 0.000102619 -2.4771 24.5085
529 1 0.4 0.6 0.000102883 -2.4771 24.5081
527 1 0.416667 0.65 0.0651004 -2.83187 0.00500673
531 1 0.45 0.65 0.00010288 -2.4771 24.5081
655 1 0.466667 0.7 0.0651005 -2.83187 0.005006
658 1 0.466667 0.6 0.0651004 -2.83187 0.00500645
659 1 0.5 0.6 0.00010267 -2.4771 24.5084
674 1 0.5 0.7 0.000102773 -2.4771 24.5083
661 1 0.516667 0.65 0.0651005 -2.83187 0.00500535
675 1 0.55 0.65 0.000102751 -2.4771 24.5083
786 1 0.566667 0.6 0.0651004 -2.83187 0.00500681
805 1 0.566667 0.7 0.0651003 -2.83187 0.00500749
806 1 0.6 0.7 0.000102795 -2.4771 24.5084
807 1 0.616667 0.65 0.0651004 -2.83187 0.00500622
809 1 0.6 0.6 0.000102726 -2.4771 24.5081
811 1 0.65 0.65 0.000102774 -2.4771 24.5082
938 1 0.666667 0.6 0.0651004 -2.83187 0.00500606
935 1 0.666667 0.7 0.0651005 -2.83187 0.00500627
939 1 0.7 0.6 0.000102741 -2.4771 24.5082
941 1 0.716667 0.65 0.0651004 -2.83187 0.00500576
954 1 0.7 0.7 0.000102787 -2.4771 24.5083
955 1 0.75 0.65 0.00010268 -2.4771 24.5083
1066 1 0.766667 0.6 0.0651005 -2.83187 0.00500559
1085 1 0.766667 0.7 0.0651003 -2.83187 0.0050075
1086 1 0.8 0.7 0.000102703 -2.4771 24.5083
1087 1 0.816667 0.65 0.0651003 -2.83187 0.00500758
1089 1 0.8 0.6 0.000102716 -2.4771 24.5083
1091 1 0.85 0.65 0.000102826 -2.4771 24.5081
1215 1 0.866667 0.7 0.0651004 -2.83187 0.00500695
1218 1 0.866667 0.6 0.0651005 -2.83187 0.00500502
1219 1 0.9 0.6 0.000102925 -2.4771 24.5081
1234 1 0.9 0.7 0.00010272 -2.4771 24.5084
1221 1 0.916667 0.65 0.0651005 -2.83187 0.00500614
1235 1 0.95 0.65 0.000102841 -2.4771 24.5082
1335 1 0.966667 0.6 0.0651005 -2.83187 0.00500607
1348 1 0.966667 0.7 0.0651004 -2.83187 0.00500722
20 1 0.0166667 0.75 0.0651005 -2.83187 0.00500636
25 1 0.0166666 0.85 0.0651005 -2.83187 0.00500639
28 1 0.0499999 0.75 0.000102696 -2.4771 24.5084
29 1 0.0499999 0.85 0.000102828 -2.4771 24.5082
110 1 0.0666666 0.8 0.0651004 -2.83187 0.00500625
111 1 0.0999998 0.8 0.000102823 -2.4771 24.5082
112 1 0.116667 0.75 0.0651004 -2.83187 0.00500672
113 1 0.116667 0.85 0.0651004 -2.83187 0.00500586
116 1 0.15 0.75 0.000102669 -2.4771 24.5084
119 1 0.15 0.85 0.000102668 -2.4771 24.5083
242 1 0.166667 0.8 0.0651003 -2.83187 0.00500683
248 1 0.216666 0.75 0.0651005 -2.83187 0.00500572
255 1 0.216667 0.85 0.0651003 -2.83187 0.0050081
257 1 0.2 0.8 0.000102657 -2.4771 24.5083
259 1 0.25 0.85 0.000102694 -2.4771 24.5084
258 1 0.25 0.75 0.000102806 -2.4771 24.5081
390 1 0.266667 0.8 0.0651004 -2.83187 0.0050061
391 1 0.3 0.8 0.000102818 -2.4771 24.5082
392 1 0.316667 0.75 0.0651004 -2.83187 0.0050065
393 1 0.316667 0.85 0.0651006 -2.83187 0.00500526
396 1 0.35 0.75 0.000102671 -2.4771 24.5084
399 1 0.35 0.85 0.000102816 -2.4771 24.5082
522 1 0.366667 0.8 0.0651003 -2.83187 0.00500842
535 1 0.416667 0.85 0.0651004 -2.83187 0.00500748
537 1 0.4 0.8 0.000102726 -2.4771 24.5083
528 1 0.416667 0.75 0.0651004 -2.83187 0.00500597
538 1 0.45 0.75 0.000102873 -2.4771 24.5082
539 1 0.45 0.85 0.000102814 -2.4771 24.5082
670 1 0.466667 0.8 0.0651006 -2.83187 0.00500418
671 1 0.5 0.8 0.000102785 -2.4771 24.5082
672 1 0.516667 0.75 0.0651005 -2.83187 0.00500564
673 1 0.516667 0.85 0.0651004 -2.83187 0.00500681
676 1 0.55 0.75 0.000102861 -2.4771 24.5082
679 1 0.55 0.85 0.000102636 -2.4771 24.5084
802 1 0.566667 0.8 0.0651005 -2.83187 0.00500639
808 1 0.616666 0.75 0.0651005 -2.83187 0.00500622
815 1 0.616667 0.85 0.0651005 -2.83187 0.00500635
817 1 0.6 0.8 0.000102961 -2.4771 24.5081
818 1 0.65 0.75 0.000102925 -2.4771 24.5082
819 1 0.65 0.85 0.000102956 -2.4771 24.5081
950 1 0.666667 0.8 0.0651005 -2.83187 0.00500554
951 1 0.7 0.8 0.0001028 -2.4771 24.5082
952 1 0.716667 0.75 0.0651005 -2.83187 0.00500515
953 1 0.716666 0.85 0.0651003 -2.83187 0.00500772
956 1 0.75 0.75 0.000102675 -2.4771 24.5084
959 1 0.75 0.85 0.000102792 -2.4771 24.5081
1082 1 0.766667 0.8 0.0651004 -2.83187 0.00500519
1088 1 0.816667 0.75 0.0651004 -2.83187 0.0050069
1095 1 0.816667 0.85 0.0651006 -2.83187 0.00500493
1097 1 0.8 0.8 0.000102717 -2.4771 24.5084
1098 1 0.85 0.75 0.000102767 -2.4771 24.5083
1099 1 0.85 0.85 0.000102925 -2.4771 24.5081
1230 1 0.866667 0.8 0.0651005 -2.83187 0.00500464
1231 1 0.9 0.8 0.000102725 -2.4771 24.5083
1233 1 0.916667 0.85 0.0651003 -2.83187 0.00500804
27 1 1 0.8 0.000102902 -2.4771 24.5081
1232 1 0.916667 0.75 0.0651004 -2.83187 0.00500662
1236 1 0.95 0.75 0.000102783 -2.4771 24.5081
1239 1 0.95 0.85 0.000102868 -2.4771 24.5081
1345 1 0.966667 0.8 0.0651006 -2.83187 0.00500412
24 1 1.49884e-07 0.9 0.000102834 -2.4771 24.5082
26 1 0.0166667 0.95 0.0651005 -2.83187 0.00500553
30 1 0.0500002 0.95 0.000102713 -2.4771 24.5083
107 1 0.0666668 0.9 0.0651004 -2.83187 0.00500665
117 1 0.116667 0.95 0.0651003 -2.83187 0.00500773
118 1 0.0999998 0.9 0.000102811 -2.4771 24.5082
120 1 0.15 0.95 0.000102733 -2.4771 24.5083
253 1 0.166667 0.9 0.0651004 -2.83187 0.0050051
155 1 0.166667 1 0.0651004 -2.83187 0.00500675
254 1 0.2 0.9 0.000102639 -2.4771 24.5083
256 1 0.216667 0.95 0.0651003 -2.83187 0.00500799
260 1 0.25 0.95 0.000102787 -2.4771 24.5081
387 1 0.266667 0.9 0.0651006 -2.83187 0.00500373
397 1 0.316667 0.95 0.0651005 -2.83187 0.00500657
398 1 0.3 0.9 0.000102968 -2.4771 24.5081
435 1 0.366667 1 0.0651004 -2.83187 0.00500737
400 1 0.35 0.95 0.000102879 -2.4771 24.5083
533 1 0.366667 0.9 0.0651006 -2.83187 0.0050048
534 1 0.4 0.9 0.000102817 -2.4771 24.5083
536 1 0.416667 0.95 0.0651006 -2.83187 0.00500448
587 1 0.466667 1 0.0651004 -2.83187 0.00500697
540 1 0.45 0.95 0.000102858 -2.4771 24.5083
667 1 0.466667 0.9 0.0651004 -2.83187 0.00500658
678 1 0.5 0.9 0.000102659 -2.4771 24.5083
677 1 0.516667 0.95 0.0651004 -2.83187 0.00500568
680 1 0.55 0.95 0.000102772 -2.4771 24.5083
813 1 0.566667 0.9 0.0651003 -2.83187 0.00500719
742 1 0.6 1 0.000102853 -2.4771 24.508
814 1 0.6 0.9 0.000102632 -2.4771 24.5084
816 1 0.616667 0.95 0.0651005 -2.83187 0.00500455
820 1 0.65 0.95 0.00010279 -2.4771 24.5082
947 1 0.666667 0.9 0.0651004 -2.83187 0.00500653
868 1 0.7 1 0.000102732 -2.4771 24.5083
957 1 0.716667 0.95 0.0651003 -2.83187 0.00500719
958 1 0.7 0.9 0.000102562 -2.4771 24.5085
960 1 0.75 0.95 0.00010266 -2.4771 24.5084
995 1 0.766667 1 0.0651004 -2.83187 0.0050068
1022 1 0.8 1 0.000102906 -2.4771 24.5082
1093 1 0.766667 0.9 0.0651004 -2.83187 0.00500629
1094 1 0.8 0.9 0.000102901 -2.4771 24.5082
1096 1 0.816667 0.95 0.0651004 -2.83187 0.00500708
1100 1 0.85 0.95 0.000102695 -2.4771 24.5084
1227 1 0.866667 0.9 0.0651005 -2.83187 0.00500524
1238 1 0.9 0.9 0.000102793 -2.4771 24.5083
1237 1 0.916667 0.95 0.0651004 -2.83187 0.00500647
1240 1 0.95 0.95 0.000102711 -2.4771 24.5084
1350 1 0.966667 0.9 0.0651005 -2.83187 0.0050058
36 1 0.0500001 0.0499997 0.19741 -2.85004 3.80478e-08
44 1 0.0333332 0.0999998 0.131243 -2.8512 2.32648e-06
46 1 0.0833335 0.0499999 0.131243 -2.8512 2.32592e-06
150 1 0.1 0.1 0.19741 -2.85004 3.56811e-08
151 1 0.133333 0.1 0.131243 -2.8512 2.37455e-06
152 1 0.15 0.0499999 0.19741 -2.85004 3.43016e-08
156 1 0.183333 0.05 0.131243 -2.8512 2.3442e-06
280 1 0.2 0.1 0.19741 -2.85004 3.85323e-08
284 1 0.233333 1.11071e-07 0.131243 -2.8512 2.34846e-06
285 1 0.25 0.0499999 0.19741 -2.85004 3.56693e-08
303 1 0.233333 0.1 0.131243 -2.8512 2.33094e-06
305 1 0.283333 0.0500002 0.131243 -2.8512 2.31013e-06
430 1 0.3 0.1 0.19741 -2.85004 3.79126e-08
431 1 0.333333 0.1 0.131243 -2.8512 2.36904e-06
434 1 0.333333 2.24051e-07 0.131243 -2.8512 2.35714e-06
432 1 0.35 0.0500003 0.19741 -2.85004 3.55691e-08
436 1 0.383333 0.0499999 0.131243 -2.8512 2.33978e-06
560 1 0.4 0.0999997 0.19741 -2.85004 3.69098e-08
563 1 0.4 7.79891e-08 0.19741 -2.85004 3.37274e-08
564 1 0.433333 3.30343e-07 0.131243 -2.8512 2.38325e-06
565 1 0.45 0.0499997 0.19741 -2.85003 3.52864e-08
583 1 0.433333 0.1 0.131243 -2.8512 2.33341e-06
585 1 0.483333 0.05 0.131243 -2.8512 2.38801e-06
710 1 0.5 0.0999998 0.19741 -2.85004 3.76332e-08
711 1 0.533333 0.1 0.131243 -2.8512 2.308e-06
712 1 0.55 0.0499998 0.19741 -2.85004 3.56277e-08
714 1 0.533333 1.10326e-07 0.131243 -2.8512 2.3241e-06
716 1 0.583333 0.0499998 0.131243 -2.8512 2.35552e-06
840 1 0.6 0.1 0.19741 -2.85004 3.69703e-08
844 1 0.633333 2.24635e-08 0.131243 -2.8512 2.35868e-06
845 1 0.65 0.0499997 0.19741 -2.85004 4.24692e-08
863 1 0.633333 0.1 0.131243 -2.8512 2.3352e-06
865 1 0.683333 0.0500003 0.131243 -2.8512 2.37918e-06
975 1 0.7 1.52396e-07 0.19741 -2.85004 3.62275e-08
990 1 0.7 0.0999998 0.19741 -2.85003 3.44991e-08
991 1 0.733333 0.1 0.131243 -2.8512 2.34299e-06
992 1 0.75 0.0499997 0.19741 -2.85004 3.96841e-08
994 1 0.733333 7.73562e-08 0.131243 -2.8512 2.35016e-06
996 1 0.783333 0.0499999 0.131243 -2.8512 2.35907e-06
1120 1 0.8 0.1 0.19741 -2.85004 3.54456e-08
1123 1 0.8 3.23937e-07 0.19741 -2.85004 3.91998e-08
1143 1 0.833333 0.1 0.131243 -2.8512 2.32381e-06
1125 1 0.85 0.05 0.19741 -2.85004 3.5416e-08
1145 1 0.883333 0.0500002 0.131243 -2.8512 2.36243e-06
1255 1 0.9 1.558e-07 0.19741 -2.85004 3.19333e-08
1270 1 0.9 0.1 0.19741 -2.85004 4.10759e-08
31 1 1 0.1 0.19741 -2.85004 3.45666e-08
1271 1 0.933333 0.0999997 0.131243 -2.8512 2.34654e-06
1272 1 0.95 0.0500003 0.19741 -2.85003 3.99147e-08
1274 1 0.933333 1.27782e-07 0.131243 -2.8512 2.35897e-06
1276 1 0.983333 0.0500001 0.131243 -2.8512 2.33002e-06
40 1 1.2092e-07 0.2 0.19741 -2.85004 3.53508e-08
41 1 0.0333335 0.2 0.131243 -2.8512 2.32071e-06
42 1 0.0500001 0.15 0.19741 -2.85004 3.85113e-08
43 1 0.05 0.25 0.19741 -2.85004 3.71969e-08
47 1 0.0833333 0.15 0.131243 -2.8512 2.34983e-06
60 1 0.0833333 0.25 0.131243 -2.8512 2.34212e-06
147 1 0.0999999 0.2 0.19741 -2.85004 3.86697e-08
153 1 0.15 0.15 0.19741 -2.85003 3.25309e-08
172 1 0.15 0.25 0.19741 -2.85004 3.36791e-08
174 1 0.133333 0.2 0.131243 -2.8512 2.37003e-06
176 1 0.183333 0.15 0.131243 -2.8512 2.32498e-06
177 1 0.183333 0.25 0.131243 -2.8512 2.35979e-06
299 1 0.2 0.2 0.19741 -2.85004 3.79611e-08
300 1 0.233333 0.2 0.131243 -2.8512 2.34152e-06
301 1 0.25 0.15 0.19741 -2.85004 3.79873e-08
302 1 0.25 0.25 0.19741 -2.85004 3.99306e-08
306 1 0.283333 0.15 0.131243 -2.8512 2.34536e-06
329 1 0.283333 0.25 0.131243 -2.8512 2.35138e-06
427 1 0.3 0.2 0.19741 -2.85004 3.52741e-08
454 1 0.333333 0.2 0.131243 -2.8512 2.38281e-06
433 1 0.35 0.15 0.19741 -2.85004 3.86548e-08
452 1 0.35 0.25 0.19741 -2.85003 3.77548e-08
456 1 0.383333 0.15 0.131243 -2.8512 2.32959e-06
457 1 0.383333 0.25 0.131243 -2.8512 2.34418e-06
579 1 0.4 0.2 0.19741 -2.85004 3.36026e-08
580 1 0.433333 0.2 0.131243 -2.8512 2.34416e-06
581 1 0.45 0.15 0.19741 -2.85004 3.97744e-08
582 1 0.45 0.25 0.19741 -2.85004 4.19423e-08
586 1 0.483333 0.15 0.131243 -2.8512 2.33143e-06
609 1 0.483333 0.25 0.131243 -2.8512 2.34743e-06
707 1 0.5 0.2 0.19741 -2.85004 3.66442e-08
713 1 0.55 0.15 0.19741 -2.85004 4.13901e-08
732 1 0.55 0.25 0.19741 -2.85004 3.88226e-08
734 1 0.533333 0.2 0.131243 -2.8512 2.32953e-06
737 1 0.583333 0.25 0.131243 -2.8512 2.34158e-06
736 1 0.583333 0.15 0.131243 -2.8512 2.36116e-06
859 1 0.6 0.2 0.19741 -2.85004 3.46842e-08
860 1 0.633333 0.2 0.131243 -2.8512 2.32307e-06
861 1 0.65 0.15 0.19741 -2.85004 3.32036e-08
862 1 0.65 0.25 0.19741 -2.85004 3.97445e-08
866 1 0.683333 0.15 0.131243 -2.8512 2.34483e-06
889 1 0.683333 0.25 0.131243 -2.8512 2.36696e-06
987 1 0.7 0.2 0.19741 -2.85004 3.70943e-08
993 1 0.75 0.15 0.19741 -2.85004 4.40972e-08
1012 1 0.75 0.25 0.19741 -2.85004 3.984e-08
1014 1 0.733333 0.2 0.131243 -2.8512 2.3785e-06
1016 1 0.783333 0.15 0.131243 -2.8512 2.35122e-06
1017 1 0.783333 0.25 0.131243 -2.8512 2.31721e-06
1139 1 0.8 0.2 0.19741 -2.85004 3.15204e-08
1140 1 0.833333 0.2 0.131243 -2.8512 2.35545e-06
1141 1 0.85 0.15 0.19741 -2.85004 3.90275e-08
1142 1 0.85 0.25 0.19741 -2.85004 3.90265e-08
1146 1 0.883333 0.15 0.131243 -2.8512 2.3265e-06
1169 1 0.883333 0.25 0.131243 -2.8512 2.33785e-06
1267 1 0.9 0.2 0.19741 -2.85004 3.3482e-08
1273 1 0.95 0.15 0.19741 -2.85004 3.85198e-08
1292 1 0.95 0.25 0.19741 -2.85004 3.53095e-08
1294 1 0.933333 0.2 0.131243 -2.8512 2.35448e-06
1296 1 0.983333 0.15 0.131243 -2.8512 2.35444e-06
1297 1 0.983333 0.25 0.131243 -2.8512 2.36667e-06
54 1 1.27527e-07 0.4 0.19741 -2.85004 3.62778e-08
55 1 0.0333334 0.4 0.131243 -2.8512 2.3395e-06
56 1 0.0500002 0.35 0.19741 -2.85004 3.83542e-08
58 1 0.0333334 0.3 0.131243 -2.8512 2.38102e-06
61 1 0.0833334 0.35 0.131243 -2.8512 2.34243e-06
167 1 0.0999999 0.4 0.19741 -2.85004 4.15445e-08
170 1 0.1 0.3 0.19741 -2.85004 3.96282e-08
171 1 0.133333 0.3 0.131243 -2.8512 2.34166e-06
173 1 0.15 0.35 0.19741 -2.85004 3.9383e-08
201 1 0.133333 0.4 0.131243 -2.8512 2.36352e-06
203 1 0.183333 0.35 0.131243 -2.8512 2.36035e-06
296 1 0.2 0.3 0.19741 -2.85004 3.16084e-08
323 1 0.2 0.4 0.19741 -2.85004 3.98049e-08
324 1 0.233333 0.4 0.131243 -2.8512 2.35051e-06
325 1 0.25 0.35 0.19741 -2.85004 3.77141e-08
327 1 0.233333 0.3 0.131243 -2.8512 2.33698e-06
330 1 0.283333 0.35 0.131243 -2.8512 2.36238e-06
447 1 0.3 0.4 0.19741 -2.85004 3.77664e-08
450 1 0.3 0.3 0.19741 -2.85004 3.74583e-08
451 1 0.333333 0.3 0.131243 -2.8512 2.37487e-06
481 1 0.333333 0.4 0.131243 -2.8512 2.34115e-06
453 1 0.35 0.35 0.19741 -2.85004 3.55805e-08
483 1 0.383333 0.35 0.131243 -2.8512 2.3603e-06
576 1 0.4 0.3 0.19741 -2.85004 3.52383e-08
603 1 0.4 0.4 0.19741 -2.85004 3.27703e-08
604 1 0.433333 0.4 0.131243 -2.8512 2.33683e-06
605 1 0.45 0.35 0.19741 -2.85004 3.86529e-08
607 1 0.433334 0.3 0.131243 -2.8512 2.31545e-06
610 1 0.483333 0.35 0.131243 -2.8512 2.37541e-06
727 1 0.5 0.4 0.197409 -2.85004 3.17659e-08
730 1 0.5 0.3 0.19741 -2.85004 3.90685e-08
731 1 0.533333 0.3 0.131243 -2.8512 2.36896e-06
733 1 0.55 0.35 0.19741 -2.85003 3.52427e-08
761 1 0.533333 0.4 0.131243 -2.8512 2.35512e-06
763 1 0.583333 0.35 0.131243 -2.8512 2.33804e-06
856 1 0.6 0.3 0.19741 -2.85004 3.69499e-08
883 1 0.6 0.4 0.19741 -2.85004 4.33726e-08
884 1 0.633333 0.4 0.131243 -2.8512 2.3354e-06
885 1 0.65 0.35 0.19741 -2.85003 3.45032e-08
887 1 0.633333 0.3 0.131243 -2.8512 2.39319e-06
890 1 0.683333 0.35 0.131243 -2.8512 2.31845e-06
1007 1 0.7 0.4 0.19741 -2.85004 3.84124e-08
1010 1 0.7 0.3 0.19741 -2.85004 3.23466e-08
1011 1 0.733333 0.3 0.131243 -2.8512 2.33522e-06
1041 1 0.733333 0.4 0.131243 -2.8512 2.35443e-06
1013 1 0.75 0.35 0.19741 -2.85004 3.30912e-08
1043 1 0.783333 0.35 0.131243 -2.8512 2.38226e-06
1136 1 0.8 0.3 0.19741 -2.85004 4.05644e-08
1163 1 0.8 0.4 0.19741 -2.85004 3.56036e-08
1167 1 0.833333 0.3 0.131243 -2.8512 2.37437e-06
1164 1 0.833333 0.4 0.131243 -2.8512 2.34414e-06
1165 1 0.85 0.35 0.19741 -2.85004 3.97523e-08
1170 1 0.883333 0.35 0.131243 -2.8512 2.38137e-06
1287 1 0.9 0.4 0.19741 -2.85004 3.79091e-08
1290 1 0.9 0.3 0.19741 -2.85004 3.39361e-08
37 1 1 0.3 0.19741 -2.85004 3.45086e-08
1291 1 0.933333 0.3 0.131243 -2.8512 2.30207e-06
1293 1 0.95 0.35 0.19741 -2.85004 4.09833e-08
1316 1 0.933333 0.4 0.131243 -2.8512 2.36388e-06
1318 1 0.983333 0.35 0.131243 -2.8512 2.32036e-06
51 1 6.51706e-08 0.5 0.19741 -2.85004 3.61738e-08
57 1 0.0500001 0.45 0.19741 -2.85003 3.6374e-08
74 1 0.0499999 0.55 0.19741 -2.85004 3.36572e-08
76 1 0.0333333 0.5 0.131243 -2.8512 2.36085e-06
78 1 0.0833333 0.45 0.131243 -2.8512 2.3537e-06
79 1 0.0833332 0.55 0.131243 -2.8512 2.34506e-06
197 1 0.1 0.5 0.19741 -2.85004 3.68461e-08
198 1 0.133333 0.5 0.131243 -2.8512 2.34414e-06
199 1 0.15 0.45 0.19741 -2.85004 3.63339e-08
200 1 0.15 0.55 0.19741 -2.85004 3.92937e-08
204 1 0.183333 0.45 0.131243 -2.8512 2.34643e-06
227 1 0.183333 0.55 0.131243 -2.8512 2.38192e-06
320 1 0.2 0.5 0.19741 -2.85003 3.32744e-08
326 1 0.25 0.45 0.19741 -2.85004 3.51451e-08
352 1 0.25 0.55 0.19741 -2.85004 4.03571e-08
354 1 0.233333 0.5 0.131243 -2.8512 2.34801e-06
356 1 0.283333 0.45 0.131243 -2.8512 2.30989e-06
357 1 0.283333 0.55 0.131243 -2.8512 2.33206e-06
477 1 0.3 0.5 0.19741 -2.85004 3.4367e-08
478 1 0.333333 0.5 0.131243 -2.8512 2.39171e-06
479 1 0.35 0.45 0.19741 -2.85004 3.23583e-08
480 1 0.35 0.55 0.19741 -2.85004 4.16945e-08
484 1 0.383333 0.45 0.131243 -2.8512 2.32866e-06
507 1 0.383333 0.55 0.131243 -2.8512 2.33436e-06
600 1 0.4 0.5 0.19741 -2.85004 3.66702e-08
606 1 0.45 0.45 0.19741 -2.85004 4.00491e-08
632 1 0.45 0.55 0.19741 -2.85004 3.46081e-08
634 1 0.433333 0.5 0.131243 -2.8512 2.35329e-06
636 1 0.483333 0.45 0.131243 -2.8512 2.32112e-06
637 1 0.483333 0.55 0.131243 -2.8512 2.36102e-06
757 1 0.5 0.5 0.19741 -2.85004 3.82643e-08
758 1 0.533333 0.5 0.131243 -2.8512 2.322e-06
759 1 0.55 0.45 0.19741 -2.85004 3.72372e-08
760 1 0.55 0.55 0.19741 -2.85003 4.20693e-08
764 1 0.583333 0.45 0.131242 -2.8512 2.41126e-06
787 1 0.583333 0.55 0.131243 -2.8512 2.37097e-06
880 1 0.6 0.5 0.197409 -2.85004 3.30556e-08
886 1 0.65 0.45 0.19741 -2.85004 4.38894e-08
912 1 0.65 0.55 0.19741 -2.85004 3.9766e-08
914 1 0.633333 0.5 0.131243 -2.8512 2.29461e-06
916 1 0.683333 0.45 0.131243 -2.8512 2.34961e-06
917 1 0.683333 0.55 0.131243 -2.8512 2.35446e-06
1037 1 0.7 0.5 0.19741 -2.85004 3.58863e-08
1038 1 0.733333 0.5 0.131243 -2.8512 2.35459e-06
1039 1 0.75 0.45 0.19741 -2.85004 3.2369e-08
1040 1 0.75 0.55 0.19741 -2.85004 3.54853e-08
1044 1 0.783333 0.45 0.131243 -2.8512 2.32535e-06
1067 1 0.783333 0.55 0.131243 -2.8512 2.35356e-06
1160 1 0.8 0.5 0.19741 -2.85004 3.74272e-08
1194 1 0.833333 0.5 0.131243 -2.8512 2.34658e-06
1166 1 0.85 0.45 0.19741 -2.85004 3.82033e-08
1192 1 0.85 0.55 0.19741 -2.85004 3.48216e-08
1196 1 0.883333 0.45 0.131243 -2.8512 2.31273e-06
1197 1 0.883333 0.55 0.131243 -2.8512 2.35497e-06
1312 1 0.9 0.5 0.19741 -2.85004 3.38627e-08
1313 1 0.933333 0.5 0.131243 -2.8512 2.3203e-06
1314 1 0.95 0.45 0.19741 -2.85004 3.38158e-08
1315 1 0.95 0.55 0.19741 -2.85004 3.76698e-08