ITEM: TIMESTEP
57
ITEM: NUMBER OF ATOMS
3200
ITEM: BOX BOUNDS pp pp ss
0.0000000000000000e+00 5.0092067021360698e+01
0.0000000000000000e+00 2.8920668379047399e+01
3.8451742731260487e-02 3.5381988531723906e+01
ITEM: ATOMS id type xs ys zs c_peratom c_csym
1 1 0 0.1 -0.00541245 -2.47707 24.5123
2 1 0.0166667 0.05 0.0602311 -2.83192 0.00501625
4 1 0 0 -0.00541245 -2.47707 24.5123
5 1 0.05 0.05 -0.00541245 -2.47707 24.5123
45 1 0.0666667 0.1 0.0602311 -2.83192 0.00501625
48 1 0.0666667 0 0.0602311 -2.83192 0.00501625
49 1 0.1 0 -0.00541245 -2.47707 24.5123
50 1 0.116667 0.05 0.0602311 -2.83192 0.00501625
66 1 0.1 0.1 -0.00541245 -2.47707 24.5123
67 1 0.15 0.05 -0.00541245 -2.47707 24.5123
155 1 0.166667 0 0.0602311 -2.83192 0.00501625
178 1 0.166667 0.1 0.0602311 -2.83192 0.00501625
179 1 0.2 0.1 -0.00541245 -2.47707 24.5123
180 1 0.216667 0.05 0.0602311 -2.83192 0.00501625
182 1 0.2 0 -0.00541245 -2.47707 24.5123
183 1 0.25 0.05 -0.00541245 -2.47707 24.5123
304 1 0.266667 0.1 0.0602311 -2.83192 0.00501625
307 1 0.266667 0 0.0602311 -2.83192 0.00501625
308 1 0.3 0 -0.00541245 -2.47707 24.5123
309 1 0.316667 0.05 0.0602311 -2.83192 0.00501625
335 1 0.3 0.1 -0.00541245 -2.47707 24.5123
336 1 0.35 0.05 -0.00541245 -2.47707 24.5123
435 1 0.366667 0 0.0602311 -2.83192 0.00501625
458 1 0.366667 0.1 0.0602311 -2.83192 0.00501625
459 1 0.4 0.1 -0.00541245 -2.47707 24.5123
460 1 0.416667 0.05 0.0602311 -2.83192 0.00501625
462 1 0.4 0 -0.00541245 -2.47707 24.5123
463 1 0.45 0.05 -0.00541245 -2.47707 24.5123
584 1 0.466667 0.1 0.0602311 -2.83192 0.00501625
587 1 0.466667 0 0.0602311 -2.83192 0.00501625
588 1 0.5 0 -0.00541245 -2.47707 24.5123
615 1 0.5 0.1 -0.00541245 -2.47707 24.5123
589 1 0.516667 0.05 0.0602311 -2.83192 0.00501625
616 1 0.55 0.05 -0.00541245 -2.47707 24.5123
715 1 0.566667 0 0.0602311 -2.83192 0.00501625
738 1 0.566667 0.1 0.0602311 -2.83192 0.00501625
739 1 0.6 0.1 -0.00541245 -2.47707 24.5123
740 1 0.616667 0.05 0.0602311 -2.83192 0.00501625
742 1 0.6 0 -0.00541245 -2.47707 24.5123
743 1 0.65 0.05 -0.00541245 -2.47707 24.5123
864 1 0.666667 0.1 0.0602311 -2.83192 0.00501625
867 1 0.666667 0 0.0602311 -2.83192 0.00501625
868 1 0.7 0 -0.00541245 -2.47707 24.5123
869 1 0.716667 0.05 0.0602311 -2.83192 0.00501625
895 1 0.7 0.1 -0.00541245 -2.47707 24.5123
896 1 0.75 0.05 -0.00541245 -2.47707 24.5123
995 1 0.766667 0 0.0602311 -2.83192 0.00501625
1018 1 0.766667 0.1 0.0602311 -2.83192 0.00501625
1019 1 0.8 0.1 -0.00541245 -2.47707 24.5123
1020 1 0.816667 0.05 0.0602311 -2.83192 0.00501625
1022 1 0.8 0 -0.00541245 -2.47707 24.5123
1023 1 0.85 0.05 -0.00541245 -2.47707 24.5123
1144 1 0.866667 0.1 0.0602311 -2.83192 0.00501625
1147 1 0.866667 0 0.0602311 -2.83192 0.00501625
1148 1 0.9 0 -0.00541245 -2.47707 24.5123
1149 1 0.916667 0.05 0.0602311 -2.83192 0.00501625
1175 1 0.9 0.1 -0.00541245 -2.47707 24.5123
1176 1 0.95 0.05 -0.00541245 -2.47707 24.5123
1275 1 0.966667 0 0.0602311 -2.83192 0.00501625
1298 1 0.966667 0.1 0.0602311 -2.83192 0.00501625
3 1 0.0166667 0.15 0.0602311 -2.83192 0.00501625
7 1 0.0166667 0.25 0.0602311 -2.83192 0.00501625
9 1 0 0.2 -0.00541245 -2.47707 24.5123
10 1 0.05 0.15 -0.00541245 -2.47707 24.5123
11 1 0.05 0.25 -0.00541245 -2.47707 24.5123
62 1 0.0666667 0.2 0.0602311 -2.83192 0.00501625
63 1 0.1 0.2 -0.00541245 -2.47707 24.5123
64 1 0.116667 0.15 0.0602311 -2.83192 0.00501625
65 1 0.116667 0.25 0.0602311 -2.83192 0.00501625
68 1 0.15 0.15 -0.00541245 -2.47707 24.5123
85 1 0.15 0.25 -0.00541245 -2.47707 24.5123
175 1 0.166667 0.2 0.0602311 -2.83192 0.00501625
181 1 0.216667 0.15 0.0602311 -2.83192 0.00501625
207 1 0.216667 0.25 0.0602311 -2.83192 0.00501625
209 1 0.2 0.2 -0.00541245 -2.47707 24.5123
210 1 0.25 0.15 -0.00541245 -2.47707 24.5123
211 1 0.25 0.25 -0.00541245 -2.47707 24.5123
331 1 0.266667 0.2 0.0602311 -2.83192 0.00501625
332 1 0.3 0.2 -0.00541245 -2.47707 24.5123
333 1 0.316667 0.15 0.0602311 -2.83192 0.00501625
334 1 0.316667 0.25 0.0602311 -2.83192 0.00501625
337 1 0.35 0.15 -0.00541245 -2.47707 24.5123
363 1 0.35 0.25 -0.00541245 -2.47707 24.5123
455 1 0.366667 0.2 0.0602311 -2.83192 0.00501625
461 1 0.416667 0.15 0.0602311 -2.83192 0.00501625
487 1 0.416667 0.25 0.0602311 -2.83192 0.00501625
489 1 0.4 0.2 -0.00541245 -2.47707 24.5123
490 1 0.45 0.15 -0.00541245 -2.47707 24.5123
491 1 0.45 0.25 -0.00541245 -2.47707 24.5123
611 1 0.466667 0.2 0.0602311 -2.83192 0.00501625
612 1 0.5 0.2 -0.00541245 -2.47707 24.5123
613 1 0.516667 0.15 0.0602311 -2.83192 0.00501625
614 1 0.516667 0.25 0.0602311 -2.83192 0.00501625
617 1 0.55 0.15 -0.00541245 -2.47707 24.5123
643 1 0.55 0.25 -0.00541245 -2.47707 24.5123
735 1 0.566667 0.2 0.0602311 -2.83192 0.00501625
741 1 0.616667 0.15 0.0602311 -2.83192 0.00501625
767 1 0.616667 0.25 0.0602311 -2.83192 0.00501625
769 1 0.6 0.2 -0.00541245 -2.47707 24.5123
770 1 0.65 0.15 -0.00541245 -2.47707 24.5123
771 1 0.65 0.25 -0.00541245 -2.47707 24.5123
891 1 0.666667 0.2 0.0602311 -2.83192 0.00501625
892 1 0.7 0.2 -0.00541245 -2.47707 24.5123
893 1 0.716667 0.15 0.0602311 -2.83192 0.00501625
894 1 0.716667 0.25 0.0602311 -2.83192 0.00501625
897 1 0.75 0.15 -0.00541245 -2.47707 24.5123
923 1 0.75 0.25 -0.00541245 -2.47707 24.5123
1015 1 0.766667 0.2 0.0602311 -2.83192 0.00501625
1021 1 0.816667 0.15 0.0602311 -2.83192 0.00501625
1047 1 0.816667 0.25 0.0602311 -2.83192 0.00501625
1049 1 0.8 0.2 -0.00541245 -2.47707 24.5123
1050 1 0.85 0.15 -0.00541245 -2.47707 24.5123
1051 1 0.85 0.25 -0.00541245 -2.47707 24.5123
1171 1 0.866667 0.2 0.0602311 -2.83192 0.00501625
1172 1 0.9 0.2 -0.00541245 -2.47707 24.5123
1173 1 0.916667 0.15 0.0602311 -2.83192 0.00501625
1174 1 0.916667 0.25 0.0602311 -2.83192 0.00501625
1177 1 0.95 0.15 -0.00541245 -2.47707 24.5123
1203 1 0.95 0.25 -0.00541245 -2.47707 24.5123
1295 1 0.966667 0.2 0.0602311 -2.83192 0.00501625
6 1 0 0.3 -0.00541245 -2.47707 24.5123
8 1 0.0166667 0.35 0.0602311 -2.83192 0.00501625
15 1 0 0.4 -0.00541245 -2.47707 24.5123
16 1 0.05 0.35 -0.00541245 -2.47707 24.5123
59 1 0.0666667 0.3 0.0602311 -2.83192 0.00501625
80 1 0.0666667 0.4 0.0602311 -2.83192 0.00501625
81 1 0.1 0.4 -0.00541245 -2.47707 24.5123
82 1 0.116667 0.35 0.0602311 -2.83192 0.00501625
84 1 0.1 0.3 -0.00541245 -2.47707 24.5123
86 1 0.15 0.35 -0.00541245 -2.47707 24.5123
202 1 0.166667 0.4 0.0602311 -2.83192 0.00501625
205 1 0.166667 0.3 0.0602311 -2.83192 0.00501625
206 1 0.2 0.3 -0.00541245 -2.47707 24.5123
208 1 0.216667 0.35 0.0602311 -2.83192 0.00501625
233 1 0.2 0.4 -0.00541245 -2.47707 24.5123
234 1 0.25 0.35 -0.00541245 -2.47707 24.5123
328 1 0.266667 0.3 0.0602311 -2.83192 0.00501625
358 1 0.266667 0.4 0.0602311 -2.83192 0.00501625
359 1 0.3 0.4 -0.00541245 -2.47707 24.5123
360 1 0.316667 0.35 0.0602311 -2.83192 0.00501625
362 1 0.3 0.3 -0.00541245 -2.47707 24.5123
364 1 0.35 0.35 -0.00541245 -2.47707 24.5123
482 1 0.366667 0.4 0.0602311 -2.83192 0.00501625
485 1 0.366667 0.3 0.0602311 -2.83192 0.00501625
486 1 0.4 0.3 -0.00541245 -2.47707 24.5123
488 1 0.416667 0.35 0.0602311 -2.83192 0.00501625
513 1 0.4 0.4 -0.00541245 -2.47707 24.5123
514 1 0.45 0.35 -0.00541245 -2.47707 24.5123
608 1 0.466667 0.3 0.0602311 -2.83192 0.00501625
638 1 0.466667 0.4 0.0602311 -2.83192 0.00501625
639 1 0.5 0.4 -0.00541245 -2.47707 24.5123
642 1 0.5 0.3 -0.00541245 -2.47707 24.5123
640 1 0.516667 0.35 0.0602311 -2.83192 0.00501625
644 1 0.55 0.35 -0.00541245 -2.47707 24.5123
762 1 0.566667 0.4 0.0602311 -2.83192 0.00501625
765 1 0.566667 0.3 0.0602311 -2.83192 0.00501625
766 1 0.6 0.3 -0.00541245 -2.47707 24.5123
768 1 0.616667 0.35 0.0602311 -2.83192 0.00501625
793 1 0.6 0.4 -0.00541245 -2.47707 24.5123
794 1 0.65 0.35 -0.00541245 -2.47707 24.5123
888 1 0.666667 0.3 0.0602311 -2.83192 0.00501625
918 1 0.666667 0.4 0.0602311 -2.83192 0.00501625
919 1 0.7 0.4 -0.00541245 -2.47707 24.5123
920 1 0.716667 0.35 0.0602311 -2.83192 0.00501625
922 1 0.7 0.3 -0.00541245 -2.47707 24.5123
924 1 0.75 0.35 -0.00541245 -2.47707 24.5123
1042 1 0.766667 0.4 0.0602311 -2.83192 0.00501625
1045 1 0.766667 0.3 0.0602311 -2.83192 0.00501625
1046 1 0.8 0.3 -0.00541245 -2.47707 24.5123
1048 1 0.816667 0.35 0.0602311 -2.83192 0.00501625
1073 1 0.8 0.4 -0.00541245 -2.47707 24.5123
1074 1 0.85 0.35 -0.00541245 -2.47707 24.5123
1168 1 0.866667 0.3 0.0602311 -2.83192 0.00501625
1198 1 0.866667 0.4 0.0602311 -2.83192 0.00501625
1199 1 0.9 0.4 -0.00541245 -2.47707 24.5123
1200 1 0.916667 0.35 0.0602311 -2.83192 0.00501625
1202 1 0.9 0.3 -0.00541245 -2.47707 24.5123
1204 1 0.95 0.35 -0.00541245 -2.47707 24.5123
1317 1 0.966667 0.4 0.0602311 -2.83192 0.00501625
1320 1 0.966667 0.3 0.0602311 -2.83192 0.00501625
12 1 0 0.5 -0.00541245 -2.47707 24.5123
13 1 0.0166667 0.45 0.0602311 -2.83192 0.00501625
14 1 0.0166667 0.55 0.0602311 -2.83192 0.00501625
17 1 0.05 0.45 -0.00541245 -2.47707 24.5123
22 1 0.05 0.55 -0.00541245 -2.47707 24.5123
77 1 0.0666667 0.5 0.0602311 -2.83192 0.00501625
83 1 0.116667 0.45 0.0602311 -2.83192 0.00501625
100 1 0.116667 0.55 0.0602311 -2.83192 0.00501625
102 1 0.1 0.5 -0.00541245 -2.47707 24.5123
103 1 0.15 0.45 -0.00541245 -2.47707 24.5123
104 1 0.15 0.55 -0.00541245 -2.47707 24.5123
229 1 0.166667 0.5 0.0602311 -2.83192 0.00501625
230 1 0.2 0.5 -0.00541245 -2.47707 24.5123
231 1 0.216667 0.45 0.0602311 -2.83192 0.00501625
232 1 0.216667 0.55 0.0602311 -2.83192 0.00501625
235 1 0.25 0.45 -0.00541245 -2.47707 24.5123
250 1 0.25 0.55 -0.00541245 -2.47707 24.5123
355 1 0.266667 0.5 0.0602311 -2.83192 0.00501625
361 1 0.316667 0.45 0.0602311 -2.83192 0.00501625
380 1 0.316667 0.55 0.0602311 -2.83192 0.00501625
382 1 0.3 0.5 -0.00541245 -2.47707 24.5123
383 1 0.35 0.45 -0.00541245 -2.47707 24.5123
384 1 0.35 0.55 -0.00541245 -2.47707 24.5123
509 1 0.366667 0.5 0.0602311 -2.83192 0.00501625
510 1 0.4 0.5 -0.00541245 -2.47707 24.5123
511 1 0.416667 0.45 0.0602311 -2.83192 0.00501625
512 1 0.416667 0.55 0.0602311 -2.83192 0.00501625
515 1 0.45 0.45 -0.00541245 -2.47707 24.5123
530 1 0.45 0.55 -0.00541245 -2.47707 24.5123
635 1 0.466667 0.5 0.0602311 -2.83192 0.00501625
662 1 0.5 0.5 -0.00541245 -2.47707 24.5123
641 1 0.516667 0.45 0.0602311 -2.83192 0.00501625
660 1 0.516667 0.55 0.0602311 -2.83192 0.00501625
663 1 0.55 0.45 -0.00541245 -2.47707 24.5123
664 1 0.55 0.55 -0.00541245 -2.47707 24.5123
789 1 0.566667 0.5 0.0602311 -2.83192 0.00501625
790 1 0.6 0.5 -0.00541245 -2.47707 24.5123
791 1 0.616667 0.45 0.0602311 -2.83192 0.00501625
792 1 0.616667 0.55 0.0602311 -2.83192 0.00501625
795 1 0.65 0.45 -0.00541245 -2.47707 24.5123
810 1 0.65 0.55 -0.00541245 -2.47707 24.5123
915 1 0.666667 0.5 0.0602311 -2.83192 0.00501625
921 1 0.716667 0.45 0.0602311 -2.83192 0.00501625
940 1 0.716667 0.55 0.0602311 -2.83192 0.00501625
942 1 0.7 0.5 -0.00541245 -2.47707 24.5123
943 1 0.75 0.45 -0.00541245 -2.47707 24.5123
944 1 0.75 0.55 -0.00541245 -2.47707 24.5123
1069 1 0.766667 0.5 0.0602311 -2.83192 0.00501625
1070 1 0.8 0.5 -0.00541245 -2.47707 24.5123
1071 1 0.816667 0.45 0.0602311 -2.83192 0.00501625
1072 1 0.816667 0.55 0.0602311 -2.83192 0.00501625
1075 1 0.85 0.45 -0.00541245 -2.47707 24.5123
1090 1 0.85 0.55 -0.00541245 -2.47707 24.5123
1195 1 0.866667 0.5 0.0602311 -2.83192 0.00501625
1201 1 0.916667 0.45 0.0602311 -2.83192 0.00501625
1220 1 0.916667 0.55 0.0602311 -2.83192 0.00501625
1222 1 0.9 0.5 -0.00541245 -2.47707 24.5123
1223 1 0.95 0.45 -0.00541245 -2.47707 24.5123
1224 1 0.95 0.55 -0.00541245 -2.47707 24.5123
1338 1 0.966667 0.5 0.0602311 -2.83192 0.00501625
18 1 0 0.7 -0.00541245 -2.47707 24.5123
19 1 0.0166667 0.65 0.0602311 -2.83192 0.00501625
21 1 0 0.6 -0.00541245 -2.47707 24.5123
23 1 0.05 0.65 -0.00541245 -2.47707 24.5123
95 1 0.0666667 0.7 0.0602311 -2.83192 0.00501625
98 1 0.0666667 0.6 0.0602311 -2.83192 0.00501625
99 1 0.1 0.6 -0.00541245 -2.47707 24.5123
101 1 0.116667 0.65 0.0602311 -2.83192 0.00501625
114 1 0.1 0.7 -0.00541245 -2.47707 24.5123
115 1 0.15 0.65 -0.00541245 -2.47707 24.5123
226 1 0.166667 0.6 0.0602311 -2.83192 0.00501625
245 1 0.166667 0.7 0.0602311 -2.83192 0.00501625
246 1 0.2 0.7 -0.00541245 -2.47707 24.5123
247 1 0.216667 0.65 0.0602311 -2.83192 0.00501625
249 1 0.2 0.6 -0.00541245 -2.47707 24.5123
251 1 0.25 0.65 -0.00541245 -2.47707 24.5123
375 1 0.266667 0.7 0.0602311 -2.83192 0.00501625
378 1 0.266667 0.6 0.0602311 -2.83192 0.00501625
379 1 0.3 0.6 -0.00541245 -2.47707 24.5123
381 1 0.316667 0.65 0.0602311 -2.83192 0.00501625
394 1 0.3 0.7 -0.00541245 -2.47707 24.5123
395 1 0.35 0.65 -0.00541245 -2.47707 24.5123
506 1 0.366667 0.6 0.0602311 -2.83192 0.00501625
525 1 0.366667 0.7 0.0602311 -2.83192 0.00501625
526 1 0.4 0.7 -0.00541245 -2.47707 24.5123
527 1 0.416667 0.65 0.0602311 -2.83192 0.00501625
529 1 0.4 0.6 -0.00541245 -2.47707 24.5123
531 1 0.45 0.65 -0.00541245 -2.47707 24.5123
655 1 0.466667 0.7 0.0602311 -2.83192 0.00501625
658 1 0.466667 0.6 0.0602311 -2.83192 0.00501625
659 1 0.5 0.6 -0.00541245 -2.47707 24.5123
674 1 0.5 0.7 -0.00541245 -2.47707 24.5123
661 1 0.516667 0.65 0.0602311 -2.83192 0.00501625
675 1 0.55 0.65 -0.00541245 -2.47707 24.5123
786 1 0.566667 0.6 0.0602311 -2.83192 0.00501625
805 1 0.566667 0.7 0.0602311 -2.83192 0.00501625
806 1 0.6 0.7 -0.00541245 -2.47707 24.5123
807 1 0.616667 0.65 0.0602311 -2.83192 0.00501625
809 1 0.6 0.6 -0.00541245 -2.47707 24.5123
811 1 0.65 0.65 -0.00541245 -2.47707 24.5123
935 1 0.666667 0.7 0.0602311 -2.83192 0.00501625
938 1 0.666667 0.6 0.0602311 -2.83192 0.00501625
939 1 0.7 0.6 -0.00541245 -2.47707 24.5123
941 1 0.716667 0.65 0.0602311 -2.83192 0.00501625
954 1 0.7 0.7 -0.00541245 -2.47707 24.5123
955 1 0.75 0.65 -0.00541245 -2.47707 24.5123
1066 1 0.766667 0.6 0.0602311 -2.83192 0.00501625
1085 1 0.766667 0.7 0.0602311 -2.83192 0.00501625
1086 1 0.8 0.7 -0.00541245 -2.47707 24.5123
1087 1 0.816667 0.65 0.0602311 -2.83192 0.00501625
1089 1 0.8 0.6 -0.00541245 -2.47707 24.5123
1091 1 0.85 0.65 -0.00541245 -2.47707 24.5123
1215 1 0.866667 0.7 0.0602311 -2.83192 0.00501625
1218 1 0.866667 0.6 0.0602311 -2.83192 0.00501625
1219 1 0.9 0.6 -0.00541245 -2.47707 24.5123
1221 1 0.916667 0.65 0.0602311 -2.83192 0.00501625
1234 1 0.9 0.7 -0.00541245 -2.47707 24.5123
1235 1 0.95 0.65 -0.00541245 -2.47707 24.5123
1335 1 0.966667 0.6 0.0602311 -2.83192 0.00501625
1348 1 0.966667 0.7 0.0602311 -2.83192 0.00501625
20 1 0.0166667 0.75 0.0602311 -2.83192 0.00501625
25 1 0.0166667 0.85 0.0602311 -2.83192 0.00501625
27 1 0 0.8 -0.00541245 -2.47707 24.5123
28 1 0.05 0.75 -0.00541245 -2.47707 24.5123
29 1 0.05 0.85 -0.00541245 -2.47707 24.5123
110 1 0.0666667 0.8 0.0602311 -2.83192 0.00501625
111 1 0.1 0.8 -0.00541245 -2.47707 24.5123
112 1 0.116667 0.75 0.0602311 -2.83192 0.00501625
113 1 0.116667 0.85 0.0602311 -2.83192 0.00501625
116 1 0.15 0.75 -0.00541245 -2.47707 24.5123
119 1 0.15 0.85 -0.00541245 -2.47707 24.5123
242 1 0.166667 0.8 0.0602311 -2.83192 0.00501625
248 1 0.216667 0.75 0.0602311 -2.83192 0.00501625
255 1 0.216667 0.85 0.0602311 -2.83192 0.00501625
257 1 0.2 0.8 -0.00541245 -2.47707 24.5123
258 1 0.25 0.75 -0.00541245 -2.47707 24.5123
259 1 0.25 0.85 -0.00541245 -2.47707 24.5123
390 1 0.266667 0.8 0.0602311 -2.83192 0.00501625
391 1 0.3 0.8 -0.00541245 -2.47707 24.5123
392 1 0.316667 0.75 0.0602311 -2.83192 0.00501625
393 1 0.316667 0.85 0.0602311 -2.83192 0.00501625
396 1 0.35 0.75 -0.00541245 -2.47707 24.5123
399 1 0.35 0.85 -0.00541245 -2.47707 24.5123
522 1 0.366667 0.8 0.0602311 -2.83192 0.00501625
528 1 0.416667 0.75 0.0602311 -2.83192 0.00501625
535 1 0.416667 0.85 0.0602311 -2.83192 0.00501625
537 1 0.4 0.8 -0.00541245 -2.47707 24.5123
538 1 0.45 0.75 -0.00541245 -2.47707 24.5123
539 1 0.45 0.85 -0.00541245 -2.47707 24.5123
670 1 0.466667 0.8 0.0602311 -2.83192 0.00501625
671 1 0.5 0.8 -0.00541245 -2.47707 24.5123
672 1 0.516667 0.75 0.0602311 -2.83192 0.00501625
673 1 0.516667 0.85 0.0602311 -2.83192 0.00501625
676 1 0.55 0.75 -0.00541245 -2.47707 24.5123
679 1 0.55 0.85 -0.00541245 -2.47707 24.5123
802 1 0.566667 0.8 0.0602311 -2.83192 0.00501625
808 1 0.616667 0.75 0.0602311 -2.83192 0.00501625
815 1 0.616667 0.85 0.0602311 -2.83192 0.00501625
817 1 0.6 0.8 -0.00541245 -2.47707 24.5123
818 1 0.65 0.75 -0.00541245 -2.47707 24.5123
819 1 0.65 0.85 -0.00541245 -2.47707 24.5123
950 1 0.666667 0.8 0.0602311 -2.83192 0.00501625
951 1 0.7 0.8 -0.00541245 -2.47707 24.5123
952 1 0.716667 0.75 0.0602311 -2.83192 0.00501625
953 1 0.716667 0.85 0.0602311 -2.83192 0.00501625
956 1 0.75 0.75 -0.00541245 -2.47707 24.5123
959 1 0.75 0.85 -0.00541245 -2.47707 24.5123
1082 1 0.766667 0.8 0.0602311 -2.83192 0.00501625
1088 1 0.816667 0.75 0.0602311 -2.83192 0.00501625
1095 1 0.816667 0.85 0.0602311 -2.83192 0.00501625
1097 1 0.8 0.8 -0.00541245 -2.47707 24.5123
1098 1 0.85 0.75 -0.00541245 -2.47707 24.5123
1099 1 0.85 0.85 -0.00541245 -2.47707 24.5123
1230 1 0.866667 0.8 0.0602311 -2.83192 0.00501625
1231 1 0.9 0.8 -0.00541245 -2.47707 24.5123
1232 1 0.916667 0.75 0.0602311 -2.83192 0.00501625
1233 1 0.916667 0.85 0.0602311 -2.83192 0.00501625
1236 1 0.95 0.75 -0.00541245 -2.47707 24.5123
1239 1 0.95 0.85 -0.00541245 -2.47707 24.5123
1345 1 0.966667 0.8 0.0602311 -2.83192 0.00501625
24 1 0 0.9 -0.00541245 -2.47707 24.5123
26 1 0.0166667 0.95 0.0602311 -2.83192 0.00501625
30 1 0.05 0.95 -0.00541245 -2.47707 24.5123
107 1 0.0666667 0.9 0.0602311 -2.83192 0.00501625
117 1 0.116667 0.95 0.0602311 -2.83192 0.00501625
118 1 0.1 0.9 -0.00541245 -2.47707 24.5123
120 1 0.15 0.95 -0.00541245 -2.47707 24.5123
253 1 0.166667 0.9 0.0602311 -2.83192 0.00501625
254 1 0.2 0.9 -0.00541245 -2.47707 24.5123
256 1 0.216667 0.95 0.0602311 -2.83192 0.00501625
260 1 0.25 0.95 -0.00541245 -2.47707 24.5123
387 1 0.266667 0.9 0.0602311 -2.83192 0.00501625
397 1 0.316667 0.95 0.0602311 -2.83192 0.00501625
398 1 0.3 0.9 -0.00541245 -2.47707 24.5123
400 1 0.35 0.95 -0.00541245 -2.47707 24.5123
533 1 0.366667 0.9 0.0602311 -2.83192 0.00501625
534 1 0.4 0.9 -0.00541245 -2.47707 24.5123
536 1 0.416667 0.95 0.0602311 -2.83192 0.00501625
540 1 0.45 0.95 -0.00541245 -2.47707 24.5123
667 1 0.466667 0.9 0.0602311 -2.83192 0.00501625
678 1 0.5 0.9 -0.00541245 -2.47707 24.5123
677 1 0.516667 0.95 0.0602311 -2.83192 0.00501625
680 1 0.55 0.95 -0.00541245 -2.47707 24.5123
813 1 0.566667 0.9 0.0602311 -2.83192 0.00501625
814 1 0.6 0.9 -0.00541245 -2.47707 24.5123
816 1 0.616667 0.95 0.0602311 -2.83192 0.00501625
820 1 0.65 0.95 -0.00541245 -2.47707 24.5123
947 1 0.666667 0.9 0.0602311 -2.83192 0.00501625
957 1 0.716667 0.95 0.0602311 -2.83192 0.00501625
958 1 0.7 0.9 -0.00541245 -2.47707 24.5123
960 1 0.75 0.95 -0.00541245 -2.47707 24.5123
1093 1 0.766667 0.9 0.0602311 -2.83192 0.00501625
1094 1 0.8 0.9 -0.00541245 -2.47707 24.5123
1096 1 0.816667 0.95 0.0602311 -2.83192 0.00501625
1100 1 0.85 0.95 -0.00541245 -2.47707 24.5123
1227 1 0.866667 0.9 0.0602311 -2.83192 0.00501625
1237 1 0.916667 0.95 0.0602311 -2.83192 0.00501625
1238 1 0.9 0.9 -0.00541245 -2.47707 24.5123
1240 1 0.95 0.95 -0.00541245 -2.47707 24.5123
1350 1 0.966667 0.9 0.0602311 -2.83192 0.00501625
31 1 0 0.1 0.193846 -2.85003 9.97068e-08
34 1 0 0 0.193846 -2.85003 9.97068e-08
35 1 0.0333333 0 0.127032 -2.8512 7.07974e-07
36 1 0.05 0.05 0.193846 -2.85003 9.97068e-08
44 1 0.0333333 0.1 0.127032 -2.8512 7.07974e-07
46 1 0.0833333 0.05 0.127032 -2.8512 7.07974e-07
135 1 0.1 0 0.193846 -2.85003 9.97068e-08
150 1 0.1 0.1 0.193846 -2.85003 9.97068e-08
151 1 0.133333 0.1 0.127032 -2.8512 7.07974e-07
152 1 0.15 0.05 0.193846 -2.85003 9.97068e-08
154 1 0.133333 0 0.127032 -2.8512 7.07974e-07
156 1 0.183333 0.05 0.127032 -2.8512 7.07974e-07
280 1 0.2 0.1 0.193846 -2.85003 9.97068e-08
283 1 0.2 0 0.193846 -2.85003 9.97068e-08
284 1 0.233333 0 0.127032 -2.8512 7.07974e-07
285 1 0.25 0.05 0.193846 -2.85003 9.97068e-08
303 1 0.233333 0.1 0.127032 -2.8512 7.07974e-07
305 1 0.283333 0.05 0.127032 -2.8512 7.07974e-07
415 1 0.3 0 0.193846 -2.85003 9.97068e-08
430 1 0.3 0.1 0.193846 -2.85003 9.97068e-08
431 1 0.333333 0.1 0.127032 -2.8512 7.07974e-07
434 1 0.333333 0 0.127032 -2.8512 7.07974e-07
432 1 0.35 0.05 0.193846 -2.85003 9.97068e-08
436 1 0.383333 0.05 0.127032 -2.8512 7.07974e-07
560 1 0.4 0.1 0.193846 -2.85003 9.97068e-08
563 1 0.4 0 0.193846 -2.85003 9.97068e-08
564 1 0.433333 0 0.127032 -2.8512 7.07974e-07
565 1 0.45 0.05 0.193846 -2.85003 9.97068e-08
583 1 0.433333 0.1 0.127032 -2.8512 7.07974e-07
585 1 0.483333 0.05 0.127032 -2.8512 7.07974e-07
695 1 0.5 0 0.193846 -2.85003 9.97068e-08
710 1 0.5 0.1 0.193846 -2.85003 9.97068e-08
711 1 0.533333 0.1 0.127032 -2.8512 7.07974e-07
712 1 0.55 0.05 0.193846 -2.85003 9.97068e-08
714 1 0.533333 0 0.127032 -2.8512 7.07974e-07
716 1 0.583333 0.05 0.127032 -2.8512 7.07974e-07
840 1 0.6 0.1 0.193846 -2.85003 9.97068e-08
843 1 0.6 0 0.193846 -2.85003 9.97068e-08
844 1 0.633333 0 0.127032 -2.8512 7.07974e-07
845 1 0.65 0.05 0.193846 -2.85003 9.97068e-08
863 1 0.633333 0.1 0.127032 -2.8512 7.07974e-07
865 1 0.683333 0.05 0.127032 -2.8512 7.07974e-07
975 1 0.7 0 0.193846 -2.85003 9.97068e-08
990 1 0.7 0.1 0.193846 -2.85003 9.97068e-08
991 1 0.733333 0.1 0.127032 -2.8512 7.07974e-07
992 1 0.75 0.05 0.193846 -2.85003 9.97068e-08
994 1 0.733333 0 0.127032 -2.8512 7.07974e-07
996 1 0.783333 0.05 0.127032 -2.8512 7.07974e-07
1120 1 0.8 0.1 0.193846 -2.85003 9.97068e-08
1123 1 0.8 0 0.193846 -2.85003 9.97068e-08
1124 1 0.833333 0 0.127032 -2.8512 7.07974e-07
1143 1 0.833333 0.1 0.127032 -2.8512 7.07974e-07
1125 1 0.85 0.05 0.193846 -2.85003 9.97068e-08
1145 1 0.883333 0.05 0.127032 -2.8512 7.07974e-07
1255 1 0.9 0 0.193846 -2.85003 9.97068e-08
1270 1 0.9 0.1 0.193846 -2.85003 9.97068e-08
1271 1 0.933333 0.1 0.127032 -2.8512 7.07974e-07
1272 1 0.95 0.05 0.193846 -2.85003 9.97068e-08
1274 1 0.933333 0 0.127032 -2.8512 7.07974e-07
1276 1 0.983333 0.05 0.127032 -2.8512 7.07974e-07
40 1 0 0.2 0.193846 -2.85003 9.97068e-08
41 1 0.0333333 0.2 0.127032 -2.8512 7.07974e-07
42 1 0.05 0.15 0.193846 -2.85003 9.97068e-08
43 1 0.05 0.25 0.193846 -2.85003 9.97068e-08
47 1 0.0833333 0.15 0.127032 -2.8512 7.07974e-07
60 1 0.0833333 0.25 0.127032 -2.8512 7.07974e-07
147 1 0.1 0.2 0.193846 -2.85003 9.97068e-08
153 1 0.15 0.15 0.193846 -2.85003 9.97068e-08
172 1 0.15 0.25 0.193846 -2.85003 9.97068e-08
174 1 0.133333 0.2 0.127032 -2.8512 7.07974e-07
176 1 0.183333 0.15 0.127032 -2.8512 7.07974e-07
177 1 0.183333 0.25 0.127032 -2.8512 7.07974e-07
299 1 0.2 0.2 0.193846 -2.85003 9.97068e-08
300 1 0.233333 0.2 0.127032 -2.8512 7.07974e-07
301 1 0.25 0.15 0.193846 -2.85003 9.97068e-08
302 1 0.25 0.25 0.193846 -2.85003 9.97068e-08
306 1 0.283333 0.15 0.127032 -2.8512 7.07974e-07
329 1 0.283333 0.25 0.127032 -2.8512 7.07974e-07
427 1 0.3 0.2 0.193846 -2.85003 9.97068e-08
454 1 0.333333 0.2 0.127032 -2.8512 7.07974e-07
433 1 0.35 0.15 0.193846 -2.85003 9.97068e-08
452 1 0.35 0.25 0.193846 -2.85003 9.97068e-08
456 1 0.383333 0.15 0.127032 -2.8512 7.07974e-07
457 1 0.383333 0.25 0.127032 -2.8512 7.07974e-07
579 1 0.4 0.2 0.193846 -2.85003 9.97068e-08
580 1 0.433333 0.2 0.127032 -2.8512 7.07974e-07
581 1 0.45 0.15 0.193846 -2.85003 9.97068e-08
582 1 0.45 0.25 0.193846 -2.85003 9.97068e-08
586 1 0.483333 0.15 0.127032 -2.8512 7.07974e-07
609 1 0.483333 0.25 0.127032 -2.8512 7.07974e-07
707 1 0.5 0.2 0.193846 -2.85003 9.97068e-08
713 1 0.55 0.15 0.193846 -2.85003 9.97068e-08
732 1 0.55 0.25 0.193846 -2.85003 9.97068e-08
734 1 0.533333 0.2 0.127032 -2.8512 7.07974e-07
736 1 0.583333 0.15 0.127032 -2.8512 7.07974e-07
737 1 0.583333 0.25 0.127032 -2.8512 7.07974e-07
859 1 0.6 0.2 0.193846 -2.85003 9.97068e-08
860 1 0.633333 0.2 0.127032 -2.8512 7.07974e-07
861 1 0.65 0.15 0.193846 -2.85003 9.97068e-08
862 1 0.65 0.25 0.193846 -2.85003 9.97068e-08
866 1 0.683333 0.15 0.127032 -2.8512 7.07974e-07
889 1 0.683333 0.25 0.127032 -2.8512 7.07974e-07
987 1 0.7 0.2 0.193846 -2.85003 9.97068e-08
993 1 0.75 0.15 0.193846 -2.85003 9.97068e-08
1012 1 0.75 0.25 0.193846 -2.85003 9.97068e-08
1014 1 0.733333 0.2 0.127032 -2.8512 7.07974e-07
1016 1 0.783333 0.15 0.127032 -2.8512 7.07974e-07
1017 1 0.783333 0.25 0.127032 -2.8512 7.07974e-07
1139 1 0.8 0.2 0.193846 -2.85003 9.97068e-08
1140 1 0.833333 0.2 0.127032 -2.8512 7.07974e-07
1141 1 0.85 0.15 0.193846 -2.85003 9.97068e-08
1142 1 0.85 0.25 0.193846 -2.85003 9.97068e-08
1146 1 0.883333 0.15 0.127032 -2.8512 7.07974e-07
1169 1 0.883333 0.25 0.127032 -2.8512 7.07974e-07
1267 1 0.9 0.2 0.193846 -2.85003 9.97068e-08
1273 1 0.95 0.15 0.193846 -2.85003 9.97068e-08
1292 1 0.95 0.25 0.193846 -2.85003 9.97068e-08
1294 1 0.933333 0.2 0.127032 -2.8512 7.07974e-07
1296 1 0.983333 0.15 0.127032 -2.8512 7.07974e-07
1297 1 0.983333 0.25 0.127032 -2.8512 7.07974e-07
37 1 0 0.3 0.193846 -2.85003 9.97068e-08
54 1 8.86546e-18 0.4 0.193846 -2.85003 9.97068e-08
55 1 0.0333333 0.4 0.127032 -2.8512 7.07974e-07
56 1 0.05 0.35 0.193846 -2.85003 9.97068e-08
58 1 0.0333333 0.3 0.127032 -2.8512 7.07974e-07
61 1 0.0833333 0.35 0.127032 -2.8512 7.07974e-07
167 1 0.1 0.4 0.193846 -2.85003 9.97068e-08
170 1 0.1 0.3 0.193846 -2.85003 9.97068e-08
171 1 0.133333 0.3 0.127032 -2.8512 7.07974e-07
173 1 0.15 0.35 0.193846 -2.85003 9.97068e-08
201 1 0.133333 0.4 0.127032 -2.8512 7.07974e-07
203 1 0.183333 0.35 0.127032 -2.8512 7.07974e-07
296 1 0.2 0.3 0.193846 -2.85003 9.97068e-08
323 1 0.2 0.4 0.193846 -2.85003 9.97068e-08
324 1 0.233333 0.4 0.127032 -2.8512 7.07974e-07
325 1 0.25 0.35 0.193846 -2.85003 9.97068e-08
327 1 0.233333 0.3 0.127032 -2.8512 7.07974e-07
330 1 0.283333 0.35 0.127032 -2.8512 7.07974e-07
447 1 0.3 0.4 0.193846 -2.85003 9.97068e-08
450 1 0.3 0.3 0.193846 -2.85003 9.97068e-08
451 1 0.333333 0.3 0.127032 -2.8512 7.07974e-07
481 1 0.333333 0.4 0.127032 -2.8512 7.07974e-07
453 1 0.35 0.35 0.193846 -2.85003 9.97068e-08
483 1 0.383333 0.35 0.127032 -2.8512 7.07974e-07
576 1 0.4 0.3 0.193846 -2.85003 9.97068e-08
603 1 0.4 0.4 0.193846 -2.85003 9.97068e-08
604 1 0.433333 0.4 0.127032 -2.8512 7.07974e-07
605 1 0.45 0.35 0.193846 -2.85003 9.97068e-08
607 1 0.433333 0.3 0.127032 -2.8512 7.07974e-07
610 1 0.483333 0.35 0.127032 -2.8512 7.07974e-07
727 1 0.5 0.4 0.193846 -2.85003 9.97068e-08
730 1 0.5 0.3 0.193846 -2.85003 9.97068e-08
731 1 0.533333 0.3 0.127032 -2.8512 7.07974e-07
733 1 0.55 0.35 0.193846 -2.85003 9.97068e-08
761 1 0.533333 0.4 0.127032 -2.8512 7.07974e-07
763 1 0.583333 0.35 0.127032 -2.8512 7.07974e-07
856 1 0.6 0.3 0.193846 -2.85003 9.97068e-08
883 1 0.6 0.4 0.193846 -2.85003 9.97068e-08
884 1 0.633333 0.4 0.127032 -2.8512 7.07974e-07
885 1 0.65 0.35 0.193846 -2.85003 9.97068e-08
887 1 0.633333 0.3 0.127032 -2.8512 7.07974e-07
890 1 0.683333 0.35 0.127032 -2.8512 7.07974e-07
1007 1 0.7 0.4 0.193846 -2.85003 9.97068e-08
1010 1 0.7 0.3 0.193846 -2.85003 9.97068e-08
1011 1 0.733333 0.3 0.127032 -2.8512 7.07974e-07
1013 1 0.75 0.35 0.193846 -2.85003 9.97068e-08
1041 1 0.733333 0.4 0.127032 -2.8512 7.07974e-07
1043 1 0.783333 0.35 0.127032 -2.8512 7.07974e-07
1136 1 0.8 0.3 0.193846 -2.85003 9.97068e-08
1163 1 0.8 0.4 0.193846 -2.85003 9.97068e-08
1164 1 0.833333 0.4 0.127032 -2.8512 7.07974e-07
1167 1 0.833333 0.3 0.127032 -2.8512 7.07974e-07
1165 1 0.85 0.35 0.193846 -2.85003 9.97068e-08
1170 1 0.883333 0.35 0.127032 -2.8512 7.07974e-07
1287 1 0.9 0.4 0.193846 -2.85003 9.97068e-08
1290 1 0.9 0.3 0.193846 -2.85003 9.97068e-08
1291 1 0.933333 0.3 0.127032 -2.8512 7.07974e-07
1293 1 0.95 0.35 0.193846 -2.85003 9.97068e-08
1316 1 0.933333 0.4 0.127032 -2.8512 7.07974e-07
1318 1 0.983333 0.35 0.127032 -2.8512 7.07974e-07
51 1 0 0.5 0.193846 -2.85003 9.97068e-08
57 1 0.05 0.45 0.193846 -2.85003 9.97068e-08
74 1 0.05 0.55 0.193846 -2.85003 9.97068e-08
76 1 0.0333333 0.5 0.127032 -2.8512 7.07974e-07
78 1 0.0833333 0.45 0.127032 -2.8512 7.07974e-07
79 1 0.0833333 0.55 0.127032 -2.8512 7.07974e-07
197 1 0.1 0.5 0.193846 -2.85003 9.97068e-08
198 1 0.133333 0.5 0.127032 -2.8512 7.07974e-07
199 1 0.15 0.45 0.193846 -2.85003 9.97068e-08
200 1 0.15 0.55 0.193846 -2.85003 9.97068e-08
204 1 0.183333 0.45 0.127032 -2.8512 7.07974e-07
227 1 0.183333 0.55 0.127032 -2.8512 7.07974e-07
320 1 0.2 0.5 0.193846 -2.85003 9.97068e-08
326 1 0.25 0.45 0.193846 -2.85003 9.97068e-08
352 1 0.25 0.55 0.193846 -2.85003 9.97068e-08
354 1 0.233333 0.5 0.127032 -2.8512 7.07974e-07
356 1 0.283333 0.45 0.127032 -2.8512 7.07974e-07
357 1 0.283333 0.55 0.127032 -2.8512 7.07974e-07
477 1 0.3 0.5 0.193846 -2.85003 9.97068e-08
478 1 0.333333 0.5 0.127032 -2.8512 7.07974e-07
479 1 0.35 0.45 0.193846 -2.85003 9.97068e-08
480 1 0.35 0.55 0.193846 -2.85003 9.97068e-08
484 1 0.383333 0.45 0.127032 -2.8512 7.07974e-07
507 1 0.383333 0.55 0.127032 -2.8512 7.07974e-07
600 1 0.4 0.5 0.193846 -2.85003 9.97068e-08
606 1 0.45 0.45 0.193846 -2.85003 9.97068e-08
632 1 0.45 0.55 0.193846 -2.85003 9.97068e-08
634 1 0.433333 0.5 0.127032 -2.8512 7.07974e-07
636 1 0.483333 0.45 0.127032 -2.8512 7.07974e-07
637 1 0.483333 0.55 0.127032 -2.8512 7.07974e-07
757 1 0.5 0.5 0.193846 -2.85003 9.97068e-08
758 1 0.533333 0.5 0.127032 -2.8512 7.07974e-07
759 1 0.55 0.45 0.193846 -2.85003 9.97068e-08
760 1 0.55 0.55 0.193846 -2.85003 9.97068e-08
764 1 0.583333 0.45 0.127032 -2.8512 7.07974e-07
787 1 0.583333 0.55 0.127032 -2.8512 7.07974e-07
880 1 0.6 0.5 0.193846 -2.85003 9.97068e-08
886 1 0.65 0.45 0.193846 -2.85003 9.97068e-08
912 1 0.65 0.55 0.193846 -2.85003 9.97068e-08
914 1 0.633333 0.5 0.127032 -2.8512 7.07974e-07
916 1 0.683333 0.45 0.127032 -2.8512 7.07974e-07
917 1 0.683333 0.55 0.127032 -2.8512 7.07974e-07
1037 1 0.7 0.5 0.193846 -2.85003 9.97068e-08
1038 1 0.733333 0.5 0.127032 -2.8512 7.07974e-07
1039 1 0.75 0.45 0.193846 -2.85003 9.97068e-08
1040 1 0.75 0.55 0.193846 -2.85003 9.97068e-08
1044 1 0.783333 0.45 0.127032 -2.8512 7.07974e-07
1067 1 0.783333 0.55 0.127032 -2.8512 7.07974e-07
1160 1 0.8 0.5 0.193846 -2.85003 9.97068e-08
1194 1 0.833333 0.5 0.127032 -2.8512 7.07974e-07
1166 1 0.85 0.45 0.193846 -2.85003 9.97068e-08
1192 1 0.85 0.55 0.193846 -2.85003 9.97068e-08
1196 1 0.883333 0.45 0.127032 -2.8512 7.07974e-07
1197 1 0.883333 0.55 0.127032 -2.8512 7.07974e-07
1312 1 0.9 0.5 0.193846 -2.85003 9.97068e-08
1313 1 0.933333 0.5 0.127032 -2.8512 7.07974e-07