ITEM: TIMESTEP
36
ITEM: NUMBER OF ATOMS
3200
ITEM: BOX BOUNDS pp pp ss
0.0000000000000000e+00 5.0092067021360698e+01
0.0000000000000000e+00 2.8920668379047399e+01
3.8451742731260487e-02 3.5381988531723906e+01
ITEM: ATOMS id type xs ys zs c_peratom c_csym
1 1 0 0.1 8.24867e-05 -2.47816 24.459
2 1 0.0166667 0.05 0.0656177 -2.83178 0.0016748
4 1 0 0 8.24867e-05 -2.47816 24.459
5 1 0.05 0.05 8.24867e-05 -2.47816 24.459
45 1 0.0666667 0.1 0.0656177 -2.83178 0.0016748
48 1 0.0666667 0 0.0656177 -2.83178 0.0016748
49 1 0.1 0 8.24867e-05 -2.47816 24.459
50 1 0.116667 0.05 0.0656177 -2.83178 0.0016748
66 1 0.1 0.1 8.24867e-05 -2.47816 24.459
67 1 0.15 0.05 8.24867e-05 -2.47816 24.459
155 1 0.166667 0 0.0656177 -2.83178 0.0016748
178 1 0.166667 0.1 0.0656177 -2.83178 0.0016748
179 1 0.2 0.1 8.24867e-05 -2.47816 24.459
180 1 0.216667 0.05 0.0656177 -2.83178 0.0016748
182 1 0.2 0 8.24867e-05 -2.47816 24.459
183 1 0.25 0.05 8.24867e-05 -2.47816 24.459
304 1 0.266667 0.1 0.0656177 -2.83178 0.0016748
307 1 0.266667 0 0.0656177 -2.83178 0.0016748
308 1 0.3 0 8.24867e-05 -2.47816 24.459
309 1 0.316667 0.05 0.0656177 -2.83178 0.0016748
335 1 0.3 0.1 8.24867e-05 -2.47816 24.459
336 1 0.35 0.05 8.24867e-05 -2.47816 24.459
435 1 0.366667 0 0.0656177 -2.83178 0.0016748
458 1 0.366667 0.1 0.0656177 -2.83178 0.0016748
459 1 0.4 0.1 8.24867e-05 -2.47816 24.459
460 1 0.416667 0.05 0.0656177 -2.83178 0.0016748
462 1 0.4 0 8.24867e-05 -2.47816 24.459
463 1 0.45 0.05 8.24867e-05 -2.47816 24.459
584 1 0.466667 0.1 0.0656177 -2.83178 0.0016748
587 1 0.466667 0 0.0656177 -2.83178 0.0016748
588 1 0.5 0 8.24867e-05 -2.47816 24.459
615 1 0.5 0.1 8.24867e-05 -2.47816 24.459
589 1 0.516667 0.05 0.0656177 -2.83178 0.0016748
616 1 0.55 0.05 8.24867e-05 -2.47816 24.459
715 1 0.566667 0 0.0656177 -2.83178 0.0016748
738 1 0.566667 0.1 0.0656177 -2.83178 0.0016748
739 1 0.6 0.1 8.24867e-05 -2.47816 24.459
740 1 0.616667 0.05 0.0656177 -2.83178 0.0016748
742 1 0.6 0 8.24867e-05 -2.47816 24.459
743 1 0.65 0.05 8.24867e-05 -2.47816 24.459
864 1 0.666667 0.1 0.0656177 -2.83178 0.0016748
867 1 0.666667 0 0.0656177 -2.83178 0.0016748
868 1 0.7 0 8.24867e-05 -2.47816 24.459
869 1 0.716667 0.05 0.0656177 -2.83178 0.0016748
895 1 0.7 0.1 8.24867e-05 -2.47816 24.459
896 1 0.75 0.05 8.24867e-05 -2.47816 24.459
995 1 0.766667 0 0.0656177 -2.83178 0.0016748
1018 1 0.766667 0.1 0.0656177 -2.83178 0.0016748
1019 1 0.8 0.1 8.24867e-05 -2.47816 24.459
1020 1 0.816667 0.05 0.0656177 -2.83178 0.0016748
1022 1 0.8 0 8.24867e-05 -2.47816 24.459
1023 1 0.85 0.05 8.24867e-05 -2.47816 24.459
1144 1 0.866667 0.1 0.0656177 -2.83178 0.0016748
1147 1 0.866667 0 0.0656177 -2.83178 0.0016748
1148 1 0.9 0 8.24867e-05 -2.47816 24.459
1149 1 0.916667 0.05 0.0656177 -2.83178 0.0016748
1175 1 0.9 0.1 8.24867e-05 -2.47816 24.459
1176 1 0.95 0.05 8.24867e-05 -2.47816 24.459
1275 1 0.966667 0 0.0656177 -2.83178 0.0016748
1298 1 0.966667 0.1 0.0656177 -2.83178 0.0016748
3 1 0.0166667 0.15 0.0656177 -2.83178 0.0016748
7 1 0.0166667 0.25 0.0656177 -2.83178 0.0016748
9 1 0 0.2 8.24867e-05 -2.47816 24.459
10 1 0.05 0.15 8.24867e-05 -2.47816 24.459
11 1 0.05 0.25 8.24867e-05 -2.47816 24.459
62 1 0.0666667 0.2 0.0656177 -2.83178 0.0016748
63 1 0.1 0.2 8.24867e-05 -2.47816 24.459
64 1 0.116667 0.15 0.0656177 -2.83178 0.0016748
65 1 0.116667 0.25 0.0656177 -2.83178 0.0016748
68 1 0.15 0.15 8.24867e-05 -2.47816 24.459
85 1 0.15 0.25 8.24867e-05 -2.47816 24.459
175 1 0.166667 0.2 0.0656177 -2.83178 0.0016748
181 1 0.216667 0.15 0.0656177 -2.83178 0.0016748
207 1 0.216667 0.25 0.0656177 -2.83178 0.0016748
209 1 0.2 0.2 8.24867e-05 -2.47816 24.459
210 1 0.25 0.15 8.24867e-05 -2.47816 24.459
211 1 0.25 0.25 8.24867e-05 -2.47816 24.459
331 1 0.266667 0.2 0.0656177 -2.83178 0.0016748
332 1 0.3 0.2 8.24867e-05 -2.47816 24.459
333 1 0.316667 0.15 0.0656177 -2.83178 0.0016748
334 1 0.316667 0.25 0.0656177 -2.83178 0.0016748
337 1 0.35 0.15 8.24867e-05 -2.47816 24.459
363 1 0.35 0.25 8.24867e-05 -2.47816 24.459
455 1 0.366667 0.2 0.0656177 -2.83178 0.0016748
461 1 0.416667 0.15 0.0656177 -2.83178 0.0016748
487 1 0.416667 0.25 0.0656177 -2.83178 0.0016748
489 1 0.4 0.2 8.24867e-05 -2.47816 24.459
490 1 0.45 0.15 8.24867e-05 -2.47816 24.459
491 1 0.45 0.25 8.24867e-05 -2.47816 24.459
611 1 0.466667 0.2 0.0656177 -2.83178 0.0016748
612 1 0.5 0.2 8.24867e-05 -2.47816 24.459
613 1 0.516667 0.15 0.0656177 -2.83178 0.0016748
614 1 0.516667 0.25 0.0656177 -2.83178 0.0016748
617 1 0.55 0.15 8.24867e-05 -2.47816 24.459
643 1 0.55 0.25 8.24867e-05 -2.47816 24.459
735 1 0.566667 0.2 0.0656177 -2.83178 0.0016748
741 1 0.616667 0.15 0.0656177 -2.83178 0.0016748
767 1 0.616667 0.25 0.0656177 -2.83178 0.0016748
769 1 0.6 0.2 8.24867e-05 -2.47816 24.459
770 1 0.65 0.15 8.24867e-05 -2.47816 24.459
771 1 0.65 0.25 8.24867e-05 -2.47816 24.459
891 1 0.666667 0.2 0.0656177 -2.83178 0.0016748
892 1 0.7 0.2 8.24867e-05 -2.47816 24.459
893 1 0.716667 0.15 0.0656177 -2.83178 0.0016748
894 1 0.716667 0.25 0.0656177 -2.83178 0.0016748
897 1 0.75 0.15 8.24867e-05 -2.47816 24.459
923 1 0.75 0.25 8.24867e-05 -2.47816 24.459
1015 1 0.766667 0.2 0.0656177 -2.83178 0.0016748
1021 1 0.816667 0.15 0.0656177 -2.83178 0.0016748
1047 1 0.816667 0.25 0.0656177 -2.83178 0.0016748
1049 1 0.8 0.2 8.24867e-05 -2.47816 24.459
1050 1 0.85 0.15 8.24867e-05 -2.47816 24.459
1051 1 0.85 0.25 8.24867e-05 -2.47816 24.459
1171 1 0.866667 0.2 0.0656177 -2.83178 0.0016748
1172 1 0.9 0.2 8.24867e-05 -2.47816 24.459
1173 1 0.916667 0.15 0.0656177 -2.83178 0.0016748
1174 1 0.916667 0.25 0.0656177 -2.83178 0.0016748
1177 1 0.95 0.15 8.24867e-05 -2.47816 24.459
1203 1 0.95 0.25 8.24867e-05 -2.47816 24.459
1295 1 0.966667 0.2 0.0656177 -2.83178 0.0016748
6 1 0 0.3 8.24867e-05 -2.47816 24.459
8 1 0.0166667 0.35 0.0656177 -2.83178 0.0016748
15 1 0 0.4 8.24867e-05 -2.47816 24.459
16 1 0.05 0.35 8.24867e-05 -2.47816 24.459
59 1 0.0666667 0.3 0.0656177 -2.83178 0.0016748
80 1 0.0666667 0.4 0.0656177 -2.83178 0.0016748
81 1 0.1 0.4 8.24867e-05 -2.47816 24.459
82 1 0.116667 0.35 0.0656177 -2.83178 0.0016748
84 1 0.1 0.3 8.24867e-05 -2.47816 24.459
86 1 0.15 0.35 8.24867e-05 -2.47816 24.459
202 1 0.166667 0.4 0.0656177 -2.83178 0.0016748
205 1 0.166667 0.3 0.0656177 -2.83178 0.0016748
206 1 0.2 0.3 8.24867e-05 -2.47816 24.459
208 1 0.216667 0.35 0.0656177 -2.83178 0.0016748
233 1 0.2 0.4 8.24867e-05 -2.47816 24.459
234 1 0.25 0.35 8.24867e-05 -2.47816 24.459
328 1 0.266667 0.3 0.0656177 -2.83178 0.0016748
358 1 0.266667 0.4 0.0656177 -2.83178 0.0016748
359 1 0.3 0.4 8.24867e-05 -2.47816 24.459
360 1 0.316667 0.35 0.0656177 -2.83178 0.0016748
362 1 0.3 0.3 8.24867e-05 -2.47816 24.459
364 1 0.35 0.35 8.24867e-05 -2.47816 24.459
482 1 0.366667 0.4 0.0656177 -2.83178 0.0016748
485 1 0.366667 0.3 0.0656177 -2.83178 0.0016748
486 1 0.4 0.3 8.24867e-05 -2.47816 24.459
488 1 0.416667 0.35 0.0656177 -2.83178 0.0016748
513 1 0.4 0.4 8.24867e-05 -2.47816 24.459
514 1 0.45 0.35 8.24867e-05 -2.47816 24.459
608 1 0.466667 0.3 0.0656177 -2.83178 0.0016748
638 1 0.466667 0.4 0.0656177 -2.83178 0.0016748
639 1 0.5 0.4 8.24867e-05 -2.47816 24.459
642 1 0.5 0.3 8.24867e-05 -2.47816 24.459
640 1 0.516667 0.35 0.0656177 -2.83178 0.0016748
644 1 0.55 0.35 8.24867e-05 -2.47816 24.459
762 1 0.566667 0.4 0.0656177 -2.83178 0.0016748
765 1 0.566667 0.3 0.0656177 -2.83178 0.0016748
766 1 0.6 0.3 8.24867e-05 -2.47816 24.459
768 1 0.616667 0.35 0.0656177 -2.83178 0.0016748
793 1 0.6 0.4 8.24867e-05 -2.47816 24.459
794 1 0.65 0.35 8.24867e-05 -2.47816 24.459
888 1 0.666667 0.3 0.0656177 -2.83178 0.0016748
918 1 0.666667 0.4 0.0656177 -2.83178 0.0016748
919 1 0.7 0.4 8.24867e-05 -2.47816 24.459
920 1 0.716667 0.35 0.0656177 -2.83178 0.0016748
922 1 0.7 0.3 8.24867e-05 -2.47816 24.459
924 1 0.75 0.35 8.24867e-05 -2.47816 24.459
1042 1 0.766667 0.4 0.0656177 -2.83178 0.0016748
1045 1 0.766667 0.3 0.0656177 -2.83178 0.0016748
1046 1 0.8 0.3 8.24867e-05 -2.47816 24.459
1048 1 0.816667 0.35 0.0656177 -2.83178 0.0016748
1073 1 0.8 0.4 8.24867e-05 -2.47816 24.459
1074 1 0.85 0.35 8.24867e-05 -2.47816 24.459
1168 1 0.866667 0.3 0.0656177 -2.83178 0.0016748
1198 1 0.866667 0.4 0.0656177 -2.83178 0.0016748
1199 1 0.9 0.4 8.24867e-05 -2.47816 24.459
1200 1 0.916667 0.35 0.0656177 -2.83178 0.0016748
1202 1 0.9 0.3 8.24867e-05 -2.47816 24.459
1204 1 0.95 0.35 8.24867e-05 -2.47816 24.459
1317 1 0.966667 0.4 0.0656177 -2.83178 0.0016748
1320 1 0.966667 0.3 0.0656177 -2.83178 0.0016748
12 1 0 0.5 8.24867e-05 -2.47816 24.459
13 1 0.0166667 0.45 0.0656177 -2.83178 0.0016748
14 1 0.0166667 0.55 0.0656177 -2.83178 0.0016748
17 1 0.05 0.45 8.24867e-05 -2.47816 24.459
22 1 0.05 0.55 8.24867e-05 -2.47816 24.459
77 1 0.0666667 0.5 0.0656177 -2.83178 0.0016748
83 1 0.116667 0.45 0.0656177 -2.83178 0.0016748
100 1 0.116667 0.55 0.0656177 -2.83178 0.0016748
102 1 0.1 0.5 8.24867e-05 -2.47816 24.459
103 1 0.15 0.45 8.24867e-05 -2.47816 24.459
104 1 0.15 0.55 8.24867e-05 -2.47816 24.459
229 1 0.166667 0.5 0.0656177 -2.83178 0.0016748
230 1 0.2 0.5 8.24867e-05 -2.47816 24.459
231 1 0.216667 0.45 0.0656177 -2.83178 0.0016748
232 1 0.216667 0.55 0.0656177 -2.83178 0.0016748
235 1 0.25 0.45 8.24867e-05 -2.47816 24.459
250 1 0.25 0.55 8.24867e-05 -2.47816 24.459
355 1 0.266667 0.5 0.0656177 -2.83178 0.0016748
361 1 0.316667 0.45 0.0656177 -2.83178 0.0016748
380 1 0.316667 0.55 0.0656177 -2.83178 0.0016748
382 1 0.3 0.5 8.24867e-05 -2.47816 24.459
383 1 0.35 0.45 8.24867e-05 -2.47816 24.459
384 1 0.35 0.55 8.24867e-05 -2.47816 24.459
509 1 0.366667 0.5 0.0656177 -2.83178 0.0016748
510 1 0.4 0.5 8.24867e-05 -2.47816 24.459
511 1 0.416667 0.45 0.0656177 -2.83178 0.0016748
512 1 0.416667 0.55 0.0656177 -2.83178 0.0016748
515 1 0.45 0.45 8.24867e-05 -2.47816 24.459
530 1 0.45 0.55 8.24867e-05 -2.47816 24.459
635 1 0.466667 0.5 0.0656177 -2.83178 0.0016748
662 1 0.5 0.5 8.24867e-05 -2.47816 24.459
641 1 0.516667 0.45 0.0656177 -2.83178 0.0016748
660 1 0.516667 0.55 0.0656177 -2.83178 0.0016748
663 1 0.55 0.45 8.24867e-05 -2.47816 24.459
664 1 0.55 0.55 8.24867e-05 -2.47816 24.459
789 1 0.566667 0.5 0.0656177 -2.83178 0.0016748
790 1 0.6 0.5 8.24867e-05 -2.47816 24.459
791 1 0.616667 0.45 0.0656177 -2.83178 0.0016748
792 1 0.616667 0.55 0.0656177 -2.83178 0.0016748
795 1 0.65 0.45 8.24867e-05 -2.47816 24.459
810 1 0.65 0.55 8.24867e-05 -2.47816 24.459
915 1 0.666667 0.5 0.0656177 -2.83178 0.0016748
921 1 0.716667 0.45 0.0656177 -2.83178 0.0016748
940 1 0.716667 0.55 0.0656177 -2.83178 0.0016748
942 1 0.7 0.5 8.24867e-05 -2.47816 24.459
943 1 0.75 0.45 8.24867e-05 -2.47816 24.459
944 1 0.75 0.55 8.24867e-05 -2.47816 24.459
1069 1 0.766667 0.5 0.0656177 -2.83178 0.0016748
1070 1 0.8 0.5 8.24867e-05 -2.47816 24.459
1071 1 0.816667 0.45 0.0656177 -2.83178 0.0016748
1072 1 0.816667 0.55 0.0656177 -2.83178 0.0016748
1075 1 0.85 0.45 8.24867e-05 -2.47816 24.459
1090 1 0.85 0.55 8.24867e-05 -2.47816 24.459
1195 1 0.866667 0.5 0.0656177 -2.83178 0.0016748
1201 1 0.916667 0.45 0.0656177 -2.83178 0.0016748
1220 1 0.916667 0.55 0.0656177 -2.83178 0.0016748
1222 1 0.9 0.5 8.24867e-05 -2.47816 24.459
1223 1 0.95 0.45 8.24867e-05 -2.47816 24.459
1224 1 0.95 0.55 8.24867e-05 -2.47816 24.459
1338 1 0.966667 0.5 0.0656177 -2.83178 0.0016748
18 1 0 0.7 8.24867e-05 -2.47816 24.459
19 1 0.0166667 0.65 0.0656177 -2.83178 0.0016748
21 1 0 0.6 8.24867e-05 -2.47816 24.459
23 1 0.05 0.65 8.24867e-05 -2.47816 24.459
95 1 0.0666667 0.7 0.0656177 -2.83178 0.0016748
98 1 0.0666667 0.6 0.0656177 -2.83178 0.0016748
99 1 0.1 0.6 8.24867e-05 -2.47816 24.459
101 1 0.116667 0.65 0.0656177 -2.83178 0.0016748
114 1 0.1 0.7 8.24867e-05 -2.47816 24.459
115 1 0.15 0.65 8.24867e-05 -2.47816 24.459
226 1 0.166667 0.6 0.0656177 -2.83178 0.0016748
245 1 0.166667 0.7 0.0656177 -2.83178 0.0016748
246 1 0.2 0.7 8.24867e-05 -2.47816 24.459
247 1 0.216667 0.65 0.0656177 -2.83178 0.0016748
249 1 0.2 0.6 8.24867e-05 -2.47816 24.459
251 1 0.25 0.65 8.24867e-05 -2.47816 24.459
375 1 0.266667 0.7 0.0656177 -2.83178 0.0016748
378 1 0.266667 0.6 0.0656177 -2.83178 0.0016748
379 1 0.3 0.6 8.24867e-05 -2.47816 24.459
381 1 0.316667 0.65 0.0656177 -2.83178 0.0016748
394 1 0.3 0.7 8.24867e-05 -2.47816 24.459
395 1 0.35 0.65 8.24867e-05 -2.47816 24.459
506 1 0.366667 0.6 0.0656177 -2.83178 0.0016748
525 1 0.366667 0.7 0.0656177 -2.83178 0.0016748
526 1 0.4 0.7 8.24867e-05 -2.47816 24.459
527 1 0.416667 0.65 0.0656177 -2.83178 0.0016748
529 1 0.4 0.6 8.24867e-05 -2.47816 24.459
531 1 0.45 0.65 8.24867e-05 -2.47816 24.459
655 1 0.466667 0.7 0.0656177 -2.83178 0.0016748
658 1 0.466667 0.6 0.0656177 -2.83178 0.0016748
659 1 0.5 0.6 8.24867e-05 -2.47816 24.459
674 1 0.5 0.7 8.24867e-05 -2.47816 24.459
661 1 0.516667 0.65 0.0656177 -2.83178 0.0016748
675 1 0.55 0.65 8.24867e-05 -2.47816 24.459
786 1 0.566667 0.6 0.0656177 -2.83178 0.0016748
805 1 0.566667 0.7 0.0656177 -2.83178 0.0016748
806 1 0.6 0.7 8.24867e-05 -2.47816 24.459
807 1 0.616667 0.65 0.0656177 -2.83178 0.0016748
809 1 0.6 0.6 8.24867e-05 -2.47816 24.459
811 1 0.65 0.65 8.24867e-05 -2.47816 24.459
935 1 0.666667 0.7 0.0656177 -2.83178 0.0016748
938 1 0.666667 0.6 0.0656177 -2.83178 0.0016748
939 1 0.7 0.6 8.24867e-05 -2.47816 24.459
941 1 0.716667 0.65 0.0656177 -2.83178 0.0016748
954 1 0.7 0.7 8.24867e-05 -2.47816 24.459
955 1 0.75 0.65 8.24867e-05 -2.47816 24.459
1066 1 0.766667 0.6 0.0656177 -2.83178 0.0016748
1085 1 0.766667 0.7 0.0656177 -2.83178 0.0016748
1086 1 0.8 0.7 8.24867e-05 -2.47816 24.459
1087 1 0.816667 0.65 0.0656177 -2.83178 0.0016748
1089 1 0.8 0.6 8.24867e-05 -2.47816 24.459
1091 1 0.85 0.65 8.24867e-05 -2.47816 24.459
1215 1 0.866667 0.7 0.0656177 -2.83178 0.0016748
1218 1 0.866667 0.6 0.0656177 -2.83178 0.0016748
1219 1 0.9 0.6 8.24867e-05 -2.47816 24.459
1221 1 0.916667 0.65 0.0656177 -2.83178 0.0016748
1234 1 0.9 0.7 8.24867e-05 -2.47816 24.459
1235 1 0.95 0.65 8.24867e-05 -2.47816 24.459
1335 1 0.966667 0.6 0.0656177 -2.83178 0.0016748
1348 1 0.966667 0.7 0.0656177 -2.83178 0.0016748
20 1 0.0166667 0.75 0.0656177 -2.83178 0.0016748
25 1 0.0166667 0.85 0.0656177 -2.83178 0.0016748
27 1 0 0.8 8.24867e-05 -2.47816 24.459
28 1 0.05 0.75 8.24867e-05 -2.47816 24.459
29 1 0.05 0.85 8.24867e-05 -2.47816 24.459
110 1 0.0666667 0.8 0.0656177 -2.83178 0.0016748
111 1 0.1 0.8 8.24867e-05 -2.47816 24.459
112 1 0.116667 0.75 0.0656177 -2.83178 0.0016748
113 1 0.116667 0.85 0.0656177 -2.83178 0.0016748
116 1 0.15 0.75 8.24867e-05 -2.47816 24.459
119 1 0.15 0.85 8.24867e-05 -2.47816 24.459
242 1 0.166667 0.8 0.0656177 -2.83178 0.0016748
248 1 0.216667 0.75 0.0656177 -2.83178 0.0016748
255 1 0.216667 0.85 0.0656177 -2.83178 0.0016748
257 1 0.2 0.8 8.24867e-05 -2.47816 24.459
258 1 0.25 0.75 8.24867e-05 -2.47816 24.459
259 1 0.25 0.85 8.24867e-05 -2.47816 24.459
390 1 0.266667 0.8 0.0656177 -2.83178 0.0016748
391 1 0.3 0.8 8.24867e-05 -2.47816 24.459
392 1 0.316667 0.75 0.0656177 -2.83178 0.0016748
393 1 0.316667 0.85 0.0656177 -2.83178 0.0016748
396 1 0.35 0.75 8.24867e-05 -2.47816 24.459
399 1 0.35 0.85 8.24867e-05 -2.47816 24.459
522 1 0.366667 0.8 0.0656177 -2.83178 0.0016748
528 1 0.416667 0.75 0.0656177 -2.83178 0.0016748
535 1 0.416667 0.85 0.0656177 -2.83178 0.0016748
537 1 0.4 0.8 8.24867e-05 -2.47816 24.459
538 1 0.45 0.75 8.24867e-05 -2.47816 24.459
539 1 0.45 0.85 8.24867e-05 -2.47816 24.459
670 1 0.466667 0.8 0.0656177 -2.83178 0.0016748
671 1 0.5 0.8 8.24867e-05 -2.47816 24.459
672 1 0.516667 0.75 0.0656177 -2.83178 0.0016748
673 1 0.516667 0.85 0.0656177 -2.83178 0.0016748
676 1 0.55 0.75 8.24867e-05 -2.47816 24.459
679 1 0.55 0.85 8.24867e-05 -2.47816 24.459
802 1 0.566667 0.8 0.0656177 -2.83178 0.0016748
808 1 0.616667 0.75 0.0656177 -2.83178 0.0016748
815 1 0.616667 0.85 0.0656177 -2.83178 0.0016748
817 1 0.6 0.8 8.24867e-05 -2.47816 24.459
818 1 0.65 0.75 8.24867e-05 -2.47816 24.459
819 1 0.65 0.85 8.24867e-05 -2.47816 24.459
950 1 0.666667 0.8 0.0656177 -2.83178 0.0016748
951 1 0.7 0.8 8.24867e-05 -2.47816 24.459
952 1 0.716667 0.75 0.0656177 -2.83178 0.0016748
953 1 0.716667 0.85 0.0656177 -2.83178 0.0016748
956 1 0.75 0.75 8.24867e-05 -2.47816 24.459
959 1 0.75 0.85 8.24867e-05 -2.47816 24.459
1082 1 0.766667 0.8 0.0656177 -2.83178 0.0016748
1088 1 0.816667 0.75 0.0656177 -2.83178 0.0016748
1095 1 0.816667 0.85 0.0656177 -2.83178 0.0016748
1097 1 0.8 0.8 8.24867e-05 -2.47816 24.459
1098 1 0.85 0.75 8.24867e-05 -2.47816 24.459
1099 1 0.85 0.85 8.24867e-05 -2.47816 24.459
1230 1 0.866667 0.8 0.0656177 -2.83178 0.0016748
1231 1 0.9 0.8 8.24867e-05 -2.47816 24.459
1232 1 0.916667 0.75 0.0656177 -2.83178 0.0016748
1233 1 0.916667 0.85 0.0656177 -2.83178 0.0016748
1236 1 0.95 0.75 8.24867e-05 -2.47816 24.459
1239 1 0.95 0.85 8.24867e-05 -2.47816 24.459
1345 1 0.966667 0.8 0.0656177 -2.83178 0.0016748
24 1 0 0.9 8.24867e-05 -2.47816 24.459
26 1 0.0166667 0.95 0.0656177 -2.83178 0.0016748
30 1 0.05 0.95 8.24867e-05 -2.47816 24.459
107 1 0.0666667 0.9 0.0656177 -2.83178 0.0016748
117 1 0.116667 0.95 0.0656177 -2.83178 0.0016748
118 1 0.1 0.9 8.24867e-05 -2.47816 24.459
120 1 0.15 0.95 8.24867e-05 -2.47816 24.459
253 1 0.166667 0.9 0.0656177 -2.83178 0.0016748
254 1 0.2 0.9 8.24867e-05 -2.47816 24.459
256 1 0.216667 0.95 0.0656177 -2.83178 0.0016748
260 1 0.25 0.95 8.24867e-05 -2.47816 24.459
387 1 0.266667 0.9 0.0656177 -2.83178 0.0016748
397 1 0.316667 0.95 0.0656177 -2.83178 0.0016748
398 1 0.3 0.9 8.24867e-05 -2.47816 24.459
400 1 0.35 0.95 8.24867e-05 -2.47816 24.459
533 1 0.366667 0.9 0.0656177 -2.83178 0.0016748
534 1 0.4 0.9 8.24867e-05 -2.47816 24.459
536 1 0.416667 0.95 0.0656177 -2.83178 0.0016748
540 1 0.45 0.95 8.24867e-05 -2.47816 24.459
667 1 0.466667 0.9 0.0656177 -2.83178 0.0016748
678 1 0.5 0.9 8.24867e-05 -2.47816 24.459
677 1 0.516667 0.95 0.0656177 -2.83178 0.0016748
680 1 0.55 0.95 8.24867e-05 -2.47816 24.459
813 1 0.566667 0.9 0.0656177 -2.83178 0.0016748
814 1 0.6 0.9 8.24867e-05 -2.47816 24.459
816 1 0.616667 0.95 0.0656177 -2.83178 0.0016748
820 1 0.65 0.95 8.24867e-05 -2.47816 24.459
947 1 0.666667 0.9 0.0656177 -2.83178 0.0016748
957 1 0.716667 0.95 0.0656177 -2.83178 0.0016748
958 1 0.7 0.9 8.24867e-05 -2.47816 24.459
960 1 0.75 0.95 8.24867e-05 -2.47816 24.459
1093 1 0.766667 0.9 0.0656177 -2.83178 0.0016748
1094 1 0.8 0.9 8.24867e-05 -2.47816 24.459
1096 1 0.816667 0.95 0.0656177 -2.83178 0.0016748
1100 1 0.85 0.95 8.24867e-05 -2.47816 24.459
1227 1 0.866667 0.9 0.0656177 -2.83178 0.0016748
1237 1 0.916667 0.95 0.0656177 -2.83178 0.0016748
1238 1 0.9 0.9 8.24867e-05 -2.47816 24.459
1240 1 0.95 0.95 8.24867e-05 -2.47816 24.459
1350 1 0.966667 0.9 0.0656177 -2.83178 0.0016748
31 1 0 0.1 0.19729 -2.84712 0.00150649
34 1 0 0 0.19729 -2.84712 0.00150649
35 1 0.0333333 0 0.131821 -2.84784 0.00202676
36 1 0.05 0.05 0.19729 -2.84712 0.00150649
44 1 0.0333333 0.1 0.131821 -2.84784 0.00202676
46 1 0.0833333 0.05 0.131821 -2.84784 0.00202676
135 1 0.1 0 0.19729 -2.84712 0.00150649
150 1 0.1 0.1 0.19729 -2.84712 0.00150649
151 1 0.133333 0.1 0.131821 -2.84784 0.00202676
152 1 0.15 0.05 0.19729 -2.84712 0.00150649
154 1 0.133333 0 0.131821 -2.84784 0.00202676
156 1 0.183333 0.05 0.131821 -2.84784 0.00202676
280 1 0.2 0.1 0.19729 -2.84712 0.00150649
283 1 0.2 0 0.19729 -2.84712 0.00150649
284 1 0.233333 0 0.131821 -2.84784 0.00202676
285 1 0.25 0.05 0.19729 -2.84712 0.00150649
303 1 0.233333 0.1 0.131821 -2.84784 0.00202676
305 1 0.283333 0.05 0.131821 -2.84784 0.00202676
415 1 0.3 0 0.19729 -2.84712 0.00150649
430 1 0.3 0.1 0.19729 -2.84712 0.00150649
431 1 0.333333 0.1 0.131821 -2.84784 0.00202676
434 1 0.333333 0 0.131821 -2.84784 0.00202676
432 1 0.35 0.05 0.19729 -2.84712 0.00150649
436 1 0.383333 0.05 0.131821 -2.84784 0.00202676
560 1 0.4 0.1 0.19729 -2.84712 0.00150649
563 1 0.4 0 0.19729 -2.84712 0.00150649
564 1 0.433333 0 0.131821 -2.84784 0.00202676
565 1 0.45 0.05 0.19729 -2.84712 0.00150649
583 1 0.433333 0.1 0.131821 -2.84784 0.00202676
585 1 0.483333 0.05 0.131821 -2.84784 0.00202676
695 1 0.5 0 0.19729 -2.84712 0.00150649
710 1 0.5 0.1 0.19729 -2.84712 0.00150649
711 1 0.533333 0.1 0.131821 -2.84784 0.00202676
712 1 0.55 0.05 0.19729 -2.84712 0.00150649
714 1 0.533333 0 0.131821 -2.84784 0.00202676
716 1 0.583333 0.05 0.131821 -2.84784 0.00202676
840 1 0.6 0.1 0.19729 -2.84712 0.00150649
843 1 0.6 0 0.19729 -2.84712 0.00150649
844 1 0.633333 0 0.131821 -2.84784 0.00202676
845 1 0.65 0.05 0.19729 -2.84712 0.00150649
863 1 0.633333 0.1 0.131821 -2.84784 0.00202676
865 1 0.683333 0.05 0.131821 -2.84784 0.00202676
975 1 0.7 0 0.19729 -2.84712 0.00150649
990 1 0.7 0.1 0.19729 -2.84712 0.00150649
991 1 0.733333 0.1 0.131821 -2.84784 0.00202676
992 1 0.75 0.05 0.19729 -2.84712 0.00150649
994 1 0.733333 0 0.131821 -2.84784 0.00202676
996 1 0.783333 0.05 0.131821 -2.84784 0.00202676
1120 1 0.8 0.1 0.19729 -2.84712 0.00150649
1123 1 0.8 0 0.19729 -2.84712 0.00150649
1124 1 0.833333 0 0.131821 -2.84784 0.00202676
1143 1 0.833333 0.1 0.131821 -2.84784 0.00202676
1125 1 0.85 0.05 0.19729 -2.84712 0.00150649
1145 1 0.883333 0.05 0.131821 -2.84784 0.00202676
1255 1 0.9 0 0.19729 -2.84712 0.00150649
1270 1 0.9 0.1 0.19729 -2.84712 0.00150649
1271 1 0.933333 0.1 0.131821 -2.84784 0.00202676
1272 1 0.95 0.05 0.19729 -2.84712 0.00150649
1274 1 0.933333 0 0.131821 -2.84784 0.00202676
1276 1 0.983333 0.05 0.131821 -2.84784 0.00202676
40 1 0 0.2 0.19729 -2.84712 0.00150649
41 1 0.0333333 0.2 0.131821 -2.84784 0.00202676
42 1 0.05 0.15 0.19729 -2.84712 0.00150649
43 1 0.05 0.25 0.19729 -2.84712 0.00150649
47 1 0.0833333 0.15 0.131821 -2.84784 0.00202676
60 1 0.0833333 0.25 0.131821 -2.84784 0.00202676
147 1 0.1 0.2 0.19729 -2.84712 0.00150649
153 1 0.15 0.15 0.19729 -2.84712 0.00150649
172 1 0.15 0.25 0.19729 -2.84712 0.00150649
174 1 0.133333 0.2 0.131821 -2.84784 0.00202676
176 1 0.183333 0.15 0.131821 -2.84784 0.00202676
177 1 0.183333 0.25 0.131821 -2.84784 0.00202676
299 1 0.2 0.2 0.19729 -2.84712 0.00150649
300 1 0.233333 0.2 0.131821 -2.84784 0.00202676
301 1 0.25 0.15 0.19729 -2.84712 0.00150649
302 1 0.25 0.25 0.19729 -2.84712 0.00150649
306 1 0.283333 0.15 0.131821 -2.84784 0.00202676
329 1 0.283333 0.25 0.131821 -2.84784 0.00202676
427 1 0.3 0.2 0.19729 -2.84712 0.00150649
454 1 0.333333 0.2 0.131821 -2.84784 0.00202676
433 1 0.35 0.15 0.19729 -2.84712 0.00150649
452 1 0.35 0.25 0.19729 -2.84712 0.00150649
456 1 0.383333 0.15 0.131821 -2.84784 0.00202676
457 1 0.383333 0.25 0.131821 -2.84784 0.00202676
579 1 0.4 0.2 0.19729 -2.84712 0.00150649
580 1 0.433333 0.2 0.131821 -2.84784 0.00202676
581 1 0.45 0.15 0.19729 -2.84712 0.00150649
582 1 0.45 0.25 0.19729 -2.84712 0.00150649
586 1 0.483333 0.15 0.131821 -2.84784 0.00202676
609 1 0.483333 0.25 0.131821 -2.84784 0.00202676
707 1 0.5 0.2 0.19729 -2.84712 0.00150649
713 1 0.55 0.15 0.19729 -2.84712 0.00150649
732 1 0.55 0.25 0.19729 -2.84712 0.00150649
734 1 0.533333 0.2 0.131821 -2.84784 0.00202676
736 1 0.583333 0.15 0.131821 -2.84784 0.00202676
737 1 0.583333 0.25 0.131821 -2.84784 0.00202676
859 1 0.6 0.2 0.19729 -2.84712 0.00150649
860 1 0.633333 0.2 0.131821 -2.84784 0.00202676
861 1 0.65 0.15 0.19729 -2.84712 0.00150649
862 1 0.65 0.25 0.19729 -2.84712 0.00150649
866 1 0.683333 0.15 0.131821 -2.84784 0.00202676
889 1 0.683333 0.25 0.131821 -2.84784 0.00202676
987 1 0.7 0.2 0.19729 -2.84712 0.00150649
993 1 0.75 0.15 0.19729 -2.84712 0.00150649
1012 1 0.75 0.25 0.19729 -2.84712 0.00150649
1014 1 0.733333 0.2 0.131821 -2.84784 0.00202676
1016 1 0.783333 0.15 0.131821 -2.84784 0.00202676
1017 1 0.783333 0.25 0.131821 -2.84784 0.00202676
1139 1 0.8 0.2 0.19729 -2.84712 0.00150649
1140 1 0.833333 0.2 0.131821 -2.84784 0.00202676
1141 1 0.85 0.15 0.19729 -2.84712 0.00150649
1142 1 0.85 0.25 0.19729 -2.84712 0.00150649
1146 1 0.883333 0.15 0.131821 -2.84784 0.00202676
1169 1 0.883333 0.25 0.131821 -2.84784 0.00202676
1267 1 0.9 0.2 0.19729 -2.84712 0.00150649
1273 1 0.95 0.15 0.19729 -2.84712 0.00150649
1292 1 0.95 0.25 0.19729 -2.84712 0.00150649
1294 1 0.933333 0.2 0.131821 -2.84784 0.00202676
1296 1 0.983333 0.15 0.131821 -2.84784 0.00202676
1297 1 0.983333 0.25 0.131821 -2.84784 0.00202676
37 1 0 0.3 0.19729 -2.84712 0.00150649
54 1 8.86546e-18 0.4 0.19729 -2.84712 0.00150649
55 1 0.0333333 0.4 0.131821 -2.84784 0.00202676
56 1 0.05 0.35 0.19729 -2.84712 0.00150649
58 1 0.0333333 0.3 0.131821 -2.84784 0.00202676
61 1 0.0833333 0.35 0.131821 -2.84784 0.00202676
167 1 0.1 0.4 0.19729 -2.84712 0.00150649
170 1 0.1 0.3 0.19729 -2.84712 0.00150649
171 1 0.133333 0.3 0.131821 -2.84784 0.00202676
173 1 0.15 0.35 0.19729 -2.84712 0.00150649
201 1 0.133333 0.4 0.131821 -2.84784 0.00202676
203 1 0.183333 0.35 0.131821 -2.84784 0.00202676
296 1 0.2 0.3 0.19729 -2.84712 0.00150649
323 1 0.2 0.4 0.19729 -2.84712 0.00150649
324 1 0.233333 0.4 0.131821 -2.84784 0.00202676
325 1 0.25 0.35 0.19729 -2.84712 0.00150649
327 1 0.233333 0.3 0.131821 -2.84784 0.00202676
330 1 0.283333 0.35 0.131821 -2.84784 0.00202676
447 1 0.3 0.4 0.19729 -2.84712 0.00150649
450 1 0.3 0.3 0.19729 -2.84712 0.00150649
451 1 0.333333 0.3 0.131821 -2.84784 0.00202676
481 1 0.333333 0.4 0.131821 -2.84784 0.00202676
453 1 0.35 0.35 0.19729 -2.84712 0.00150649
483 1 0.383333 0.35 0.131821 -2.84784 0.00202676
576 1 0.4 0.3 0.19729 -2.84712 0.00150649
603 1 0.4 0.4 0.19729 -2.84712 0.00150649
604 1 0.433333 0.4 0.131821 -2.84784 0.00202676
605 1 0.45 0.35 0.19729 -2.84712 0.00150649
607 1 0.433333 0.3 0.131821 -2.84784 0.00202676
610 1 0.483333 0.35 0.131821 -2.84784 0.00202676
727 1 0.5 0.4 0.19729 -2.84712 0.00150649
730 1 0.5 0.3 0.19729 -2.84712 0.00150649
731 1 0.533333 0.3 0.131821 -2.84784 0.00202676
733 1 0.55 0.35 0.19729 -2.84712 0.00150649
761 1 0.533333 0.4 0.131821 -2.84784 0.00202676
763 1 0.583333 0.35 0.131821 -2.84784 0.00202676
856 1 0.6 0.3 0.19729 -2.84712 0.00150649
883 1 0.6 0.4 0.19729 -2.84712 0.00150649
884 1 0.633333 0.4 0.131821 -2.84784 0.00202676
885 1 0.65 0.35 0.19729 -2.84712 0.00150649
887 1 0.633333 0.3 0.131821 -2.84784 0.00202676
890 1 0.683333 0.35 0.131821 -2.84784 0.00202676
1007 1 0.7 0.4 0.19729 -2.84712 0.00150649
1010 1 0.7 0.3 0.19729 -2.84712 0.00150649
1011 1 0.733333 0.3 0.131821 -2.84784 0.00202676
1013 1 0.75 0.35 0.19729 -2.84712 0.00150649
1041 1 0.733333 0.4 0.131821 -2.84784 0.00202676
1043 1 0.783333 0.35 0.131821 -2.84784 0.00202676
1136 1 0.8 0.3 0.19729 -2.84712 0.00150649
1163 1 0.8 0.4 0.19729 -2.84712 0.00150649
1164 1 0.833333 0.4 0.131821 -2.84784 0.00202676
1167 1 0.833333 0.3 0.131821 -2.84784 0.00202676
1165 1 0.85 0.35 0.19729 -2.84712 0.00150649
1170 1 0.883333 0.35 0.131821 -2.84784 0.00202676
1287 1 0.9 0.4 0.19729 -2.84712 0.00150649
1290 1 0.9 0.3 0.19729 -2.84712 0.00150649
1291 1 0.933333 0.3 0.131821 -2.84784 0.00202676
1293 1 0.95 0.35 0.19729 -2.84712 0.00150649
1316 1 0.933333 0.4 0.131821 -2.84784 0.00202676
1318 1 0.983333 0.35 0.131821 -2.84784 0.00202676
51 1 0 0.5 0.19729 -2.84712 0.00150649
57 1 0.05 0.45 0.19729 -2.84712 0.00150649
74 1 0.05 0.55 0.19729 -2.84712 0.00150649
76 1 0.0333333 0.5 0.131821 -2.84784 0.00202676
78 1 0.0833333 0.45 0.131821 -2.84784 0.00202676
79 1 0.0833333 0.55 0.131821 -2.84784 0.00202676
197 1 0.1 0.5 0.19729 -2.84712 0.00150649
198 1 0.133333 0.5 0.131821 -2.84784 0.00202676
199 1 0.15 0.45 0.19729 -2.84712 0.00150649
200 1 0.15 0.55 0.19729 -2.84712 0.00150649
204 1 0.183333 0.45 0.131821 -2.84784 0.00202676
227 1 0.183333 0.55 0.131821 -2.84784 0.00202676
320 1 0.2 0.5 0.19729 -2.84712 0.00150649
326 1 0.25 0.45 0.19729 -2.84712 0.00150649
352 1 0.25 0.55 0.19729 -2.84712 0.00150649
354 1 0.233333 0.5 0.131821 -2.84784 0.00202676
356 1 0.283333 0.45 0.131821 -2.84784 0.00202676
357 1 0.283333 0.55 0.131821 -2.84784 0.00202676
477 1 0.3 0.5 0.19729 -2.84712 0.00150649
478 1 0.333333 0.5 0.131821 -2.84784 0.00202676
479 1 0.35 0.45 0.19729 -2.84712 0.00150649
480 1 0.35 0.55 0.19729 -2.84712 0.00150649
484 1 0.383333 0.45 0.131821 -2.84784 0.00202676
507 1 0.383333 0.55 0.131821 -2.84784 0.00202676
600 1 0.4 0.5 0.19729 -2.84712 0.00150649
606 1 0.45 0.45 0.19729 -2.84712 0.00150649
632 1 0.45 0.55 0.19729 -2.84712 0.00150649
634 1 0.433333 0.5 0.131821 -2.84784 0.00202676
636 1 0.483333 0.45 0.131821 -2.84784 0.00202676
637 1 0.483333 0.55 0.131821 -2.84784 0.00202676
757 1 0.5 0.5 0.19729 -2.84712 0.00150649
758 1 0.533333 0.5 0.131821 -2.84784 0.00202676
759 1 0.55 0.45 0.19729 -2.84712 0.00150649
760 1 0.55 0.55 0.19729 -2.84712 0.00150649
764 1 0.583333 0.45 0.131821 -2.84784 0.00202676
787 1 0.583333 0.55 0.131821 -2.84784 0.00202676
880 1 0.6 0.5 0.19729 -2.84712 0.00150649
886 1 0.65 0.45 0.19729 -2.84712 0.00150649
912 1 0.65 0.55 0.19729 -2.84712 0.00150649
914 1 0.633333 0.5 0.131821 -2.84784 0.00202676
916 1 0.683333 0.45 0.131821 -2.84784 0.00202676
917 1 0.683333 0.55 0.131821 -2.84784 0.00202676
1037 1 0.7 0.5 0.19729 -2.84712 0.00150649
1038 1 0.733333 0.5 0.131821 -2.84784 0.00202676
1039 1 0.75 0.45 0.19729 -2.84712 0.00150649
1040 1 0.75 0.55 0.19729 -2.84712 0.00150649
1044 1 0.783333 0.45 0.131821 -2.84784 0.00202676
1067 1 0.783333 0.55 0.131821 -2.84784 0.00202676
1160 1 0.8 0.5 0.19729 -2.84712 0.00150649
1194 1 0.833333 0.5 0.131821 -2.84784 0.00202676
1166 1 0.85 0.45 0.19729 -2.84712 0.00150649
1192 1 0.85 0.55 0.19729 -2.84712 0.00150649
1196 1 0.883333 0.45 0.131821 -2.84784 0.00202676
1197 1 0.883333 0.55 0.131821 -2.84784 0.00202676
1312 1 0.9 0.5 0.19729 -2.84712 0.00150649
1313 1 0.933333 0.5 0.131821 -2.84784 0.00202676
1314 1 0.95 0.45 0.19729 -2.84712 0.00150649
1315 1 0.95 0.55 0.19729 -2.84712 0.00150649
1319 1 0.983333 0.45 0.131821 -2.84784 0.00202676
1336 1 0.983333 0.55 0.131821 -2.84784 0.00202676
69 1 1.77309e-17 0.7 0.19729 -2.84712 0.00150649
72 1 0 0.6 0.19729 -2.84712 0.00150649
73 1 0.0333333 0.6 0.131821 -2.84784 0.00202676
75 1 0.05 0.65 0.19729 -2.84712 0.00150649
94 1 0.0333333 0.7 0.131821 -2.84784 0.00202676
96 1 0.0833333 0.65 0.131821 -2.84784 0.00202676
194 1 0.1 0.6 0.19729 -2.84712 0.00150649
221 1 0.1 0.7 0.19729 -2.84712 0.00150649
222 1 0.133333 0.7 0.131821 -2.84784 0.00202676
223 1 0.15 0.65 0.19729 -2.84712 0.00150649