ITEM: TIMESTEP
34
ITEM: NUMBER OF ATOMS
3200
ITEM: BOX BOUNDS pp pp ss
0.0000000000000000e+00 5.0092067021360698e+01
0.0000000000000000e+00 2.8920668379047399e+01
3.8451742731260487e-02 3.5381988531723906e+01
ITEM: ATOMS id type xs ys zs c_peratom c_csym
1 1 0 0.1 0.00010335 -2.47713 24.5075
2 1 0.0166667 0.05 0.0657371 -2.83201 0.00484254
4 1 0 0 0.00010335 -2.47713 24.5075
5 1 0.05 0.05 0.00010335 -2.47713 24.5075
45 1 0.0666667 0.1 0.0657371 -2.83201 0.00484254
48 1 0.0666667 0 0.0657371 -2.83201 0.00484254
49 1 0.1 0 0.00010335 -2.47713 24.5075
50 1 0.116667 0.05 0.0657371 -2.83201 0.00484254
66 1 0.1 0.1 0.00010335 -2.47713 24.5075
67 1 0.15 0.05 0.00010335 -2.47713 24.5075
155 1 0.166667 0 0.0657371 -2.83201 0.00484254
178 1 0.166667 0.1 0.0657371 -2.83201 0.00484254
179 1 0.2 0.1 0.00010335 -2.47713 24.5075
180 1 0.216667 0.05 0.0657371 -2.83201 0.00484254
182 1 0.2 0 0.00010335 -2.47713 24.5075
183 1 0.25 0.05 0.00010335 -2.47713 24.5075
304 1 0.266667 0.1 0.0657371 -2.83201 0.00484254
307 1 0.266667 0 0.0657371 -2.83201 0.00484254
308 1 0.3 0 0.00010335 -2.47713 24.5075
309 1 0.316667 0.05 0.0657371 -2.83201 0.00484254
335 1 0.3 0.1 0.00010335 -2.47713 24.5075
336 1 0.35 0.05 0.00010335 -2.47713 24.5075
435 1 0.366667 0 0.0657371 -2.83201 0.00484254
458 1 0.366667 0.1 0.0657371 -2.83201 0.00484254
459 1 0.4 0.1 0.00010335 -2.47713 24.5075
460 1 0.416667 0.05 0.0657371 -2.83201 0.00484254
462 1 0.4 0 0.00010335 -2.47713 24.5075
463 1 0.45 0.05 0.00010335 -2.47713 24.5075
584 1 0.466667 0.1 0.0657371 -2.83201 0.00484254
587 1 0.466667 0 0.0657371 -2.83201 0.00484254
588 1 0.5 0 0.00010335 -2.47713 24.5075
615 1 0.5 0.1 0.00010335 -2.47713 24.5075
589 1 0.516667 0.05 0.0657371 -2.83201 0.00484254
616 1 0.55 0.05 0.00010335 -2.47713 24.5075
715 1 0.566667 0 0.0657371 -2.83201 0.00484254
738 1 0.566667 0.1 0.0657371 -2.83201 0.00484254
739 1 0.6 0.1 0.00010335 -2.47713 24.5075
740 1 0.616667 0.05 0.0657371 -2.83201 0.00484254
742 1 0.6 0 0.00010335 -2.47713 24.5075
743 1 0.65 0.05 0.00010335 -2.47713 24.5075
864 1 0.666667 0.1 0.0657371 -2.83201 0.00484254
867 1 0.666667 0 0.0657371 -2.83201 0.00484254
868 1 0.7 0 0.00010335 -2.47713 24.5075
869 1 0.716667 0.05 0.0657371 -2.83201 0.00484254
895 1 0.7 0.1 0.00010335 -2.47713 24.5075
896 1 0.75 0.05 0.00010335 -2.47713 24.5075
995 1 0.766667 0 0.0657371 -2.83201 0.00484254
1018 1 0.766667 0.1 0.0657371 -2.83201 0.00484254
1019 1 0.8 0.1 0.00010335 -2.47713 24.5075
1020 1 0.816667 0.05 0.0657371 -2.83201 0.00484254
1022 1 0.8 0 0.00010335 -2.47713 24.5075
1023 1 0.85 0.05 0.00010335 -2.47713 24.5075
1144 1 0.866667 0.1 0.0657371 -2.83201 0.00484254
1147 1 0.866667 0 0.0657371 -2.83201 0.00484254
1148 1 0.9 0 0.00010335 -2.47713 24.5075
1149 1 0.916667 0.05 0.0657371 -2.83201 0.00484254
1175 1 0.9 0.1 0.00010335 -2.47713 24.5075
1176 1 0.95 0.05 0.00010335 -2.47713 24.5075
1275 1 0.966667 0 0.0657371 -2.83201 0.00484254
1298 1 0.966667 0.1 0.0657371 -2.83201 0.00484254
3 1 0.0166667 0.15 0.0657371 -2.83201 0.00484254
7 1 0.0166667 0.25 0.0657371 -2.83201 0.00484254
9 1 0 0.2 0.00010335 -2.47713 24.5075
10 1 0.05 0.15 0.00010335 -2.47713 24.5075
11 1 0.05 0.25 0.00010335 -2.47713 24.5075
62 1 0.0666667 0.2 0.0657371 -2.83201 0.00484254
63 1 0.1 0.2 0.00010335 -2.47713 24.5075
64 1 0.116667 0.15 0.0657371 -2.83201 0.00484254
65 1 0.116667 0.25 0.0657371 -2.83201 0.00484254
68 1 0.15 0.15 0.00010335 -2.47713 24.5075
85 1 0.15 0.25 0.00010335 -2.47713 24.5075
175 1 0.166667 0.2 0.0657371 -2.83201 0.00484254
181 1 0.216667 0.15 0.0657371 -2.83201 0.00484254
207 1 0.216667 0.25 0.0657371 -2.83201 0.00484254
209 1 0.2 0.2 0.00010335 -2.47713 24.5075
210 1 0.25 0.15 0.00010335 -2.47713 24.5075
211 1 0.25 0.25 0.00010335 -2.47713 24.5075
331 1 0.266667 0.2 0.0657371 -2.83201 0.00484254
332 1 0.3 0.2 0.00010335 -2.47713 24.5075
333 1 0.316667 0.15 0.0657371 -2.83201 0.00484254
334 1 0.316667 0.25 0.0657371 -2.83201 0.00484254
337 1 0.35 0.15 0.00010335 -2.47713 24.5075
363 1 0.35 0.25 0.00010335 -2.47713 24.5075
455 1 0.366667 0.2 0.0657371 -2.83201 0.00484254
461 1 0.416667 0.15 0.0657371 -2.83201 0.00484254
487 1 0.416667 0.25 0.0657371 -2.83201 0.00484254
489 1 0.4 0.2 0.00010335 -2.47713 24.5075
490 1 0.45 0.15 0.00010335 -2.47713 24.5075
491 1 0.45 0.25 0.00010335 -2.47713 24.5075
611 1 0.466667 0.2 0.0657371 -2.83201 0.00484254
612 1 0.5 0.2 0.00010335 -2.47713 24.5075
613 1 0.516667 0.15 0.0657371 -2.83201 0.00484254
614 1 0.516667 0.25 0.0657371 -2.83201 0.00484254
617 1 0.55 0.15 0.00010335 -2.47713 24.5075
643 1 0.55 0.25 0.00010335 -2.47713 24.5075
735 1 0.566667 0.2 0.0657371 -2.83201 0.00484254
741 1 0.616667 0.15 0.0657371 -2.83201 0.00484254
767 1 0.616667 0.25 0.0657371 -2.83201 0.00484254
769 1 0.6 0.2 0.00010335 -2.47713 24.5075
770 1 0.65 0.15 0.00010335 -2.47713 24.5075
771 1 0.65 0.25 0.00010335 -2.47713 24.5075
891 1 0.666667 0.2 0.0657371 -2.83201 0.00484254
892 1 0.7 0.2 0.00010335 -2.47713 24.5075
893 1 0.716667 0.15 0.0657371 -2.83201 0.00484254
894 1 0.716667 0.25 0.0657371 -2.83201 0.00484254
897 1 0.75 0.15 0.00010335 -2.47713 24.5075
923 1 0.75 0.25 0.00010335 -2.47713 24.5075
1015 1 0.766667 0.2 0.0657371 -2.83201 0.00484254
1021 1 0.816667 0.15 0.0657371 -2.83201 0.00484254
1047 1 0.816667 0.25 0.0657371 -2.83201 0.00484254
1049 1 0.8 0.2 0.00010335 -2.47713 24.5075
1050 1 0.85 0.15 0.00010335 -2.47713 24.5075
1051 1 0.85 0.25 0.00010335 -2.47713 24.5075
1171 1 0.866667 0.2 0.0657371 -2.83201 0.00484254
1172 1 0.9 0.2 0.00010335 -2.47713 24.5075
1173 1 0.916667 0.15 0.0657371 -2.83201 0.00484254
1174 1 0.916667 0.25 0.0657371 -2.83201 0.00484254
1177 1 0.95 0.15 0.00010335 -2.47713 24.5075
1203 1 0.95 0.25 0.00010335 -2.47713 24.5075
1295 1 0.966667 0.2 0.0657371 -2.83201 0.00484254
6 1 0 0.3 0.00010335 -2.47713 24.5075
8 1 0.0166667 0.35 0.0657371 -2.83201 0.00484254
15 1 0 0.4 0.00010335 -2.47713 24.5075
16 1 0.05 0.35 0.00010335 -2.47713 24.5075
59 1 0.0666667 0.3 0.0657371 -2.83201 0.00484254
80 1 0.0666667 0.4 0.0657371 -2.83201 0.00484254
81 1 0.1 0.4 0.00010335 -2.47713 24.5075
82 1 0.116667 0.35 0.0657371 -2.83201 0.00484254
84 1 0.1 0.3 0.00010335 -2.47713 24.5075
86 1 0.15 0.35 0.00010335 -2.47713 24.5075
202 1 0.166667 0.4 0.0657371 -2.83201 0.00484254
205 1 0.166667 0.3 0.0657371 -2.83201 0.00484254
206 1 0.2 0.3 0.00010335 -2.47713 24.5075
208 1 0.216667 0.35 0.0657371 -2.83201 0.00484254
233 1 0.2 0.4 0.00010335 -2.47713 24.5075
234 1 0.25 0.35 0.00010335 -2.47713 24.5075
328 1 0.266667 0.3 0.0657371 -2.83201 0.00484254
358 1 0.266667 0.4 0.0657371 -2.83201 0.00484254
359 1 0.3 0.4 0.00010335 -2.47713 24.5075
360 1 0.316667 0.35 0.0657371 -2.83201 0.00484254
362 1 0.3 0.3 0.00010335 -2.47713 24.5075
364 1 0.35 0.35 0.00010335 -2.47713 24.5075
482 1 0.366667 0.4 0.0657371 -2.83201 0.00484254
485 1 0.366667 0.3 0.0657371 -2.83201 0.00484254
486 1 0.4 0.3 0.00010335 -2.47713 24.5075
488 1 0.416667 0.35 0.0657371 -2.83201 0.00484254
513 1 0.4 0.4 0.00010335 -2.47713 24.5075
514 1 0.45 0.35 0.00010335 -2.47713 24.5075
608 1 0.466667 0.3 0.0657371 -2.83201 0.00484254
638 1 0.466667 0.4 0.0657371 -2.83201 0.00484254
639 1 0.5 0.4 0.00010335 -2.47713 24.5075
642 1 0.5 0.3 0.00010335 -2.47713 24.5075
640 1 0.516667 0.35 0.0657371 -2.83201 0.00484254
644 1 0.55 0.35 0.00010335 -2.47713 24.5075
762 1 0.566667 0.4 0.0657371 -2.83201 0.00484254
765 1 0.566667 0.3 0.0657371 -2.83201 0.00484254
766 1 0.6 0.3 0.00010335 -2.47713 24.5075
768 1 0.616667 0.35 0.0657371 -2.83201 0.00484254
793 1 0.6 0.4 0.00010335 -2.47713 24.5075
794 1 0.65 0.35 0.00010335 -2.47713 24.5075
888 1 0.666667 0.3 0.0657371 -2.83201 0.00484254
918 1 0.666667 0.4 0.0657371 -2.83201 0.00484254
919 1 0.7 0.4 0.00010335 -2.47713 24.5075
920 1 0.716667 0.35 0.0657371 -2.83201 0.00484254
922 1 0.7 0.3 0.00010335 -2.47713 24.5075
924 1 0.75 0.35 0.00010335 -2.47713 24.5075
1042 1 0.766667 0.4 0.0657371 -2.83201 0.00484254
1045 1 0.766667 0.3 0.0657371 -2.83201 0.00484254
1046 1 0.8 0.3 0.00010335 -2.47713 24.5075
1048 1 0.816667 0.35 0.0657371 -2.83201 0.00484254
1073 1 0.8 0.4 0.00010335 -2.47713 24.5075
1074 1 0.85 0.35 0.00010335 -2.47713 24.5075
1168 1 0.866667 0.3 0.0657371 -2.83201 0.00484254
1198 1 0.866667 0.4 0.0657371 -2.83201 0.00484254
1199 1 0.9 0.4 0.00010335 -2.47713 24.5075
1200 1 0.916667 0.35 0.0657371 -2.83201 0.00484254
1202 1 0.9 0.3 0.00010335 -2.47713 24.5075
1204 1 0.95 0.35 0.00010335 -2.47713 24.5075
1317 1 0.966667 0.4 0.0657371 -2.83201 0.00484254
1320 1 0.966667 0.3 0.0657371 -2.83201 0.00484254
12 1 0 0.5 0.00010335 -2.47713 24.5075
13 1 0.0166667 0.45 0.0657371 -2.83201 0.00484254
14 1 0.0166667 0.55 0.0657371 -2.83201 0.00484254
17 1 0.05 0.45 0.00010335 -2.47713 24.5075
22 1 0.05 0.55 0.00010335 -2.47713 24.5075
77 1 0.0666667 0.5 0.0657371 -2.83201 0.00484254
83 1 0.116667 0.45 0.0657371 -2.83201 0.00484254
100 1 0.116667 0.55 0.0657371 -2.83201 0.00484254
102 1 0.1 0.5 0.00010335 -2.47713 24.5075
103 1 0.15 0.45 0.00010335 -2.47713 24.5075
104 1 0.15 0.55 0.00010335 -2.47713 24.5075
229 1 0.166667 0.5 0.0657371 -2.83201 0.00484254
230 1 0.2 0.5 0.00010335 -2.47713 24.5075
231 1 0.216667 0.45 0.0657371 -2.83201 0.00484254
232 1 0.216667 0.55 0.0657371 -2.83201 0.00484254
235 1 0.25 0.45 0.00010335 -2.47713 24.5075
250 1 0.25 0.55 0.00010335 -2.47713 24.5075
355 1 0.266667 0.5 0.0657371 -2.83201 0.00484254
361 1 0.316667 0.45 0.0657371 -2.83201 0.00484254
380 1 0.316667 0.55 0.0657371 -2.83201 0.00484254
382 1 0.3 0.5 0.00010335 -2.47713 24.5075
383 1 0.35 0.45 0.00010335 -2.47713 24.5075
384 1 0.35 0.55 0.00010335 -2.47713 24.5075
509 1 0.366667 0.5 0.0657371 -2.83201 0.00484254
510 1 0.4 0.5 0.00010335 -2.47713 24.5075
511 1 0.416667 0.45 0.0657371 -2.83201 0.00484254
512 1 0.416667 0.55 0.0657371 -2.83201 0.00484254
515 1 0.45 0.45 0.00010335 -2.47713 24.5075
530 1 0.45 0.55 0.00010335 -2.47713 24.5075
635 1 0.466667 0.5 0.0657371 -2.83201 0.00484254
662 1 0.5 0.5 0.00010335 -2.47713 24.5075
641 1 0.516667 0.45 0.0657371 -2.83201 0.00484254
660 1 0.516667 0.55 0.0657371 -2.83201 0.00484254
663 1 0.55 0.45 0.00010335 -2.47713 24.5075
664 1 0.55 0.55 0.00010335 -2.47713 24.5075
789 1 0.566667 0.5 0.0657371 -2.83201 0.00484254
790 1 0.6 0.5 0.00010335 -2.47713 24.5075
791 1 0.616667 0.45 0.0657371 -2.83201 0.00484254
792 1 0.616667 0.55 0.0657371 -2.83201 0.00484254
795 1 0.65 0.45 0.00010335 -2.47713 24.5075
810 1 0.65 0.55 0.00010335 -2.47713 24.5075
915 1 0.666667 0.5 0.0657371 -2.83201 0.00484254
921 1 0.716667 0.45 0.0657371 -2.83201 0.00484254
940 1 0.716667 0.55 0.0657371 -2.83201 0.00484254
942 1 0.7 0.5 0.00010335 -2.47713 24.5075
943 1 0.75 0.45 0.00010335 -2.47713 24.5075
944 1 0.75 0.55 0.00010335 -2.47713 24.5075
1069 1 0.766667 0.5 0.0657371 -2.83201 0.00484254
1070 1 0.8 0.5 0.00010335 -2.47713 24.5075
1071 1 0.816667 0.45 0.0657371 -2.83201 0.00484254
1072 1 0.816667 0.55 0.0657371 -2.83201 0.00484254
1075 1 0.85 0.45 0.00010335 -2.47713 24.5075
1090 1 0.85 0.55 0.00010335 -2.47713 24.5075
1195 1 0.866667 0.5 0.0657371 -2.83201 0.00484254
1201 1 0.916667 0.45 0.0657371 -2.83201 0.00484254
1220 1 0.916667 0.55 0.0657371 -2.83201 0.00484254
1222 1 0.9 0.5 0.00010335 -2.47713 24.5075
1223 1 0.95 0.45 0.00010335 -2.47713 24.5075
1224 1 0.95 0.55 0.00010335 -2.47713 24.5075
1338 1 0.966667 0.5 0.0657371 -2.83201 0.00484254
18 1 0 0.7 0.00010335 -2.47713 24.5075
19 1 0.0166667 0.65 0.0657371 -2.83201 0.00484254
21 1 0 0.6 0.00010335 -2.47713 24.5075
23 1 0.05 0.65 0.00010335 -2.47713 24.5075
95 1 0.0666667 0.7 0.0657371 -2.83201 0.00484254
98 1 0.0666667 0.6 0.0657371 -2.83201 0.00484254
99 1 0.1 0.6 0.00010335 -2.47713 24.5075
101 1 0.116667 0.65 0.0657371 -2.83201 0.00484254
114 1 0.1 0.7 0.00010335 -2.47713 24.5075
115 1 0.15 0.65 0.00010335 -2.47713 24.5075
226 1 0.166667 0.6 0.0657371 -2.83201 0.00484254
245 1 0.166667 0.7 0.0657371 -2.83201 0.00484254
246 1 0.2 0.7 0.00010335 -2.47713 24.5075
247 1 0.216667 0.65 0.0657371 -2.83201 0.00484254
249 1 0.2 0.6 0.00010335 -2.47713 24.5075
251 1 0.25 0.65 0.00010335 -2.47713 24.5075
375 1 0.266667 0.7 0.0657371 -2.83201 0.00484254
378 1 0.266667 0.6 0.0657371 -2.83201 0.00484254
379 1 0.3 0.6 0.00010335 -2.47713 24.5075
381 1 0.316667 0.65 0.0657371 -2.83201 0.00484254
394 1 0.3 0.7 0.00010335 -2.47713 24.5075
395 1 0.35 0.65 0.00010335 -2.47713 24.5075
506 1 0.366667 0.6 0.0657371 -2.83201 0.00484254
525 1 0.366667 0.7 0.0657371 -2.83201 0.00484254
526 1 0.4 0.7 0.00010335 -2.47713 24.5075
527 1 0.416667 0.65 0.0657371 -2.83201 0.00484254
529 1 0.4 0.6 0.00010335 -2.47713 24.5075
531 1 0.45 0.65 0.00010335 -2.47713 24.5075
655 1 0.466667 0.7 0.0657371 -2.83201 0.00484254
658 1 0.466667 0.6 0.0657371 -2.83201 0.00484254
659 1 0.5 0.6 0.00010335 -2.47713 24.5075
674 1 0.5 0.7 0.00010335 -2.47713 24.5075
661 1 0.516667 0.65 0.0657371 -2.83201 0.00484254
675 1 0.55 0.65 0.00010335 -2.47713 24.5075
786 1 0.566667 0.6 0.0657371 -2.83201 0.00484254
805 1 0.566667 0.7 0.0657371 -2.83201 0.00484254
806 1 0.6 0.7 0.00010335 -2.47713 24.5075
807 1 0.616667 0.65 0.0657371 -2.83201 0.00484254
809 1 0.6 0.6 0.00010335 -2.47713 24.5075
811 1 0.65 0.65 0.00010335 -2.47713 24.5075
935 1 0.666667 0.7 0.0657371 -2.83201 0.00484254
938 1 0.666667 0.6 0.0657371 -2.83201 0.00484254
939 1 0.7 0.6 0.00010335 -2.47713 24.5075
941 1 0.716667 0.65 0.0657371 -2.83201 0.00484254
954 1 0.7 0.7 0.00010335 -2.47713 24.5075
955 1 0.75 0.65 0.00010335 -2.47713 24.5075
1066 1 0.766667 0.6 0.0657371 -2.83201 0.00484254
1085 1 0.766667 0.7 0.0657371 -2.83201 0.00484254
1086 1 0.8 0.7 0.00010335 -2.47713 24.5075
1087 1 0.816667 0.65 0.0657371 -2.83201 0.00484254
1089 1 0.8 0.6 0.00010335 -2.47713 24.5075
1091 1 0.85 0.65 0.00010335 -2.47713 24.5075
1215 1 0.866667 0.7 0.0657371 -2.83201 0.00484254
1218 1 0.866667 0.6 0.0657371 -2.83201 0.00484254
1219 1 0.9 0.6 0.00010335 -2.47713 24.5075
1221 1 0.916667 0.65 0.0657371 -2.83201 0.00484254
1234 1 0.9 0.7 0.00010335 -2.47713 24.5075
1235 1 0.95 0.65 0.00010335 -2.47713 24.5075
1335 1 0.966667 0.6 0.0657371 -2.83201 0.00484254
1348 1 0.966667 0.7 0.0657371 -2.83201 0.00484254
20 1 0.0166667 0.75 0.0657371 -2.83201 0.00484254
25 1 0.0166667 0.85 0.0657371 -2.83201 0.00484254
27 1 0 0.8 0.00010335 -2.47713 24.5075
28 1 0.05 0.75 0.00010335 -2.47713 24.5075
29 1 0.05 0.85 0.00010335 -2.47713 24.5075
110 1 0.0666667 0.8 0.0657371 -2.83201 0.00484254
111 1 0.1 0.8 0.00010335 -2.47713 24.5075
112 1 0.116667 0.75 0.0657371 -2.83201 0.00484254
113 1 0.116667 0.85 0.0657371 -2.83201 0.00484254
116 1 0.15 0.75 0.00010335 -2.47713 24.5075
119 1 0.15 0.85 0.00010335 -2.47713 24.5075
242 1 0.166667 0.8 0.0657371 -2.83201 0.00484254
248 1 0.216667 0.75 0.0657371 -2.83201 0.00484254
255 1 0.216667 0.85 0.0657371 -2.83201 0.00484254
257 1 0.2 0.8 0.00010335 -2.47713 24.5075
258 1 0.25 0.75 0.00010335 -2.47713 24.5075
259 1 0.25 0.85 0.00010335 -2.47713 24.5075
390 1 0.266667 0.8 0.0657371 -2.83201 0.00484254
391 1 0.3 0.8 0.00010335 -2.47713 24.5075
392 1 0.316667 0.75 0.0657371 -2.83201 0.00484254
393 1 0.316667 0.85 0.0657371 -2.83201 0.00484254
396 1 0.35 0.75 0.00010335 -2.47713 24.5075
399 1 0.35 0.85 0.00010335 -2.47713 24.5075
522 1 0.366667 0.8 0.0657371 -2.83201 0.00484254
528 1 0.416667 0.75 0.0657371 -2.83201 0.00484254
535 1 0.416667 0.85 0.0657371 -2.83201 0.00484254
537 1 0.4 0.8 0.00010335 -2.47713 24.5075
538 1 0.45 0.75 0.00010335 -2.47713 24.5075
539 1 0.45 0.85 0.00010335 -2.47713 24.5075
670 1 0.466667 0.8 0.0657371 -2.83201 0.00484254
671 1 0.5 0.8 0.00010335 -2.47713 24.5075
672 1 0.516667 0.75 0.0657371 -2.83201 0.00484254
673 1 0.516667 0.85 0.0657371 -2.83201 0.00484254
676 1 0.55 0.75 0.00010335 -2.47713 24.5075
679 1 0.55 0.85 0.00010335 -2.47713 24.5075
802 1 0.566667 0.8 0.0657371 -2.83201 0.00484254
808 1 0.616667 0.75 0.0657371 -2.83201 0.00484254
815 1 0.616667 0.85 0.0657371 -2.83201 0.00484254
817 1 0.6 0.8 0.00010335 -2.47713 24.5075
818 1 0.65 0.75 0.00010335 -2.47713 24.5075
819 1 0.65 0.85 0.00010335 -2.47713 24.5075
950 1 0.666667 0.8 0.0657371 -2.83201 0.00484254
951 1 0.7 0.8 0.00010335 -2.47713 24.5075
952 1 0.716667 0.75 0.0657371 -2.83201 0.00484254
953 1 0.716667 0.85 0.0657371 -2.83201 0.00484254
956 1 0.75 0.75 0.00010335 -2.47713 24.5075
959 1 0.75 0.85 0.00010335 -2.47713 24.5075
1082 1 0.766667 0.8 0.0657371 -2.83201 0.00484254
1088 1 0.816667 0.75 0.0657371 -2.83201 0.00484254
1095 1 0.816667 0.85 0.0657371 -2.83201 0.00484254
1097 1 0.8 0.8 0.00010335 -2.47713 24.5075
1098 1 0.85 0.75 0.00010335 -2.47713 24.5075
1099 1 0.85 0.85 0.00010335 -2.47713 24.5075
1230 1 0.866667 0.8 0.0657371 -2.83201 0.00484254
1231 1 0.9 0.8 0.00010335 -2.47713 24.5075
1232 1 0.916667 0.75 0.0657371 -2.83201 0.00484254
1233 1 0.916667 0.85 0.0657371 -2.83201 0.00484254
1236 1 0.95 0.75 0.00010335 -2.47713 24.5075
1239 1 0.95 0.85 0.00010335 -2.47713 24.5075
1345 1 0.966667 0.8 0.0657371 -2.83201 0.00484254
24 1 0 0.9 0.00010335 -2.47713 24.5075
26 1 0.0166667 0.95 0.0657371 -2.83201 0.00484254
30 1 0.05 0.95 0.00010335 -2.47713 24.5075
107 1 0.0666667 0.9 0.0657371 -2.83201 0.00484254
117 1 0.116667 0.95 0.0657371 -2.83201 0.00484254
118 1 0.1 0.9 0.00010335 -2.47713 24.5075
120 1 0.15 0.95 0.00010335 -2.47713 24.5075
253 1 0.166667 0.9 0.0657371 -2.83201 0.00484254
254 1 0.2 0.9 0.00010335 -2.47713 24.5075
256 1 0.216667 0.95 0.0657371 -2.83201 0.00484254
260 1 0.25 0.95 0.00010335 -2.47713 24.5075
387 1 0.266667 0.9 0.0657371 -2.83201 0.00484254
397 1 0.316667 0.95 0.0657371 -2.83201 0.00484254
398 1 0.3 0.9 0.00010335 -2.47713 24.5075
400 1 0.35 0.95 0.00010335 -2.47713 24.5075
533 1 0.366667 0.9 0.0657371 -2.83201 0.00484254
534 1 0.4 0.9 0.00010335 -2.47713 24.5075
536 1 0.416667 0.95 0.0657371 -2.83201 0.00484254
540 1 0.45 0.95 0.00010335 -2.47713 24.5075
667 1 0.466667 0.9 0.0657371 -2.83201 0.00484254
678 1 0.5 0.9 0.00010335 -2.47713 24.5075
677 1 0.516667 0.95 0.0657371 -2.83201 0.00484254
680 1 0.55 0.95 0.00010335 -2.47713 24.5075
813 1 0.566667 0.9 0.0657371 -2.83201 0.00484254
814 1 0.6 0.9 0.00010335 -2.47713 24.5075
816 1 0.616667 0.95 0.0657371 -2.83201 0.00484254
820 1 0.65 0.95 0.00010335 -2.47713 24.5075
947 1 0.666667 0.9 0.0657371 -2.83201 0.00484254
957 1 0.716667 0.95 0.0657371 -2.83201 0.00484254
958 1 0.7 0.9 0.00010335 -2.47713 24.5075
960 1 0.75 0.95 0.00010335 -2.47713 24.5075
1093 1 0.766667 0.9 0.0657371 -2.83201 0.00484254
1094 1 0.8 0.9 0.00010335 -2.47713 24.5075
1096 1 0.816667 0.95 0.0657371 -2.83201 0.00484254
1100 1 0.85 0.95 0.00010335 -2.47713 24.5075
1227 1 0.866667 0.9 0.0657371 -2.83201 0.00484254
1237 1 0.916667 0.95 0.0657371 -2.83201 0.00484254
1238 1 0.9 0.9 0.00010335 -2.47713 24.5075
1240 1 0.95 0.95 0.00010335 -2.47713 24.5075
1350 1 0.966667 0.9 0.0657371 -2.83201 0.00484254
31 1 0 0.1 0.199148 -2.84845 0.00463986
34 1 0 0 0.199148 -2.84845 0.00463986
35 1 0.0333333 0 0.132508 -2.85232 6.3611e-05
36 1 0.05 0.05 0.199148 -2.84845 0.00463986
44 1 0.0333333 0.1 0.132508 -2.85232 6.3611e-05
46 1 0.0833333 0.05 0.132508 -2.85232 6.3611e-05
135 1 0.1 0 0.199148 -2.84845 0.00463986
150 1 0.1 0.1 0.199148 -2.84845 0.00463986
151 1 0.133333 0.1 0.132508 -2.85232 6.3611e-05
152 1 0.15 0.05 0.199148 -2.84845 0.00463986
154 1 0.133333 0 0.132508 -2.85232 6.3611e-05
156 1 0.183333 0.05 0.132508 -2.85232 6.3611e-05
280 1 0.2 0.1 0.199148 -2.84845 0.00463986
283 1 0.2 0 0.199148 -2.84845 0.00463986
284 1 0.233333 0 0.132508 -2.85232 6.3611e-05
285 1 0.25 0.05 0.199148 -2.84845 0.00463986
303 1 0.233333 0.1 0.132508 -2.85232 6.3611e-05
305 1 0.283333 0.05 0.132508 -2.85232 6.3611e-05
415 1 0.3 0 0.199148 -2.84845 0.00463986
430 1 0.3 0.1 0.199148 -2.84845 0.00463986
431 1 0.333333 0.1 0.132508 -2.85232 6.3611e-05
434 1 0.333333 0 0.132508 -2.85232 6.3611e-05
432 1 0.35 0.05 0.199148 -2.84845 0.00463986
436 1 0.383333 0.05 0.132508 -2.85232 6.3611e-05
560 1 0.4 0.1 0.199148 -2.84845 0.00463986
563 1 0.4 0 0.199148 -2.84845 0.00463986
564 1 0.433333 0 0.132508 -2.85232 6.3611e-05
565 1 0.45 0.05 0.199148 -2.84845 0.00463986
583 1 0.433333 0.1 0.132508 -2.85232 6.3611e-05
585 1 0.483333 0.05 0.132508 -2.85232 6.3611e-05
695 1 0.5 0 0.199148 -2.84845 0.00463986
710 1 0.5 0.1 0.199148 -2.84845 0.00463986
711 1 0.533333 0.1 0.132508 -2.85232 6.3611e-05
712 1 0.55 0.05 0.199148 -2.84845 0.00463986
714 1 0.533333 0 0.132508 -2.85232 6.3611e-05
716 1 0.583333 0.05 0.132508 -2.85232 6.3611e-05
840 1 0.6 0.1 0.199148 -2.84845 0.00463986
843 1 0.6 0 0.199148 -2.84845 0.00463986
844 1 0.633333 0 0.132508 -2.85232 6.3611e-05
845 1 0.65 0.05 0.199148 -2.84845 0.00463986
863 1 0.633333 0.1 0.132508 -2.85232 6.3611e-05
865 1 0.683333 0.05 0.132508 -2.85232 6.3611e-05
975 1 0.7 0 0.199148 -2.84845 0.00463986
990 1 0.7 0.1 0.199148 -2.84845 0.00463986
991 1 0.733333 0.1 0.132508 -2.85232 6.3611e-05
992 1 0.75 0.05 0.199148 -2.84845 0.00463986
994 1 0.733333 0 0.132508 -2.85232 6.3611e-05
996 1 0.783333 0.05 0.132508 -2.85232 6.3611e-05
1120 1 0.8 0.1 0.199148 -2.84845 0.00463986
1123 1 0.8 0 0.199148 -2.84845 0.00463986
1124 1 0.833333 0 0.132508 -2.85232 6.3611e-05
1143 1 0.833333 0.1 0.132508 -2.85232 6.3611e-05
1125 1 0.85 0.05 0.199148 -2.84845 0.00463986
1145 1 0.883333 0.05 0.132508 -2.85232 6.3611e-05
1255 1 0.9 0 0.199148 -2.84845 0.00463986
1270 1 0.9 0.1 0.199148 -2.84845 0.00463986
1271 1 0.933333 0.1 0.132508 -2.85232 6.3611e-05
1272 1 0.95 0.05 0.199148 -2.84845 0.00463986
1274 1 0.933333 0 0.132508 -2.85232 6.3611e-05
1276 1 0.983333 0.05 0.132508 -2.85232 6.3611e-05
40 1 0 0.2 0.199148 -2.84845 0.00463986
41 1 0.0333333 0.2 0.132508 -2.85232 6.3611e-05
42 1 0.05 0.15 0.199148 -2.84845 0.00463986
43 1 0.05 0.25 0.199148 -2.84845 0.00463986
47 1 0.0833333 0.15 0.132508 -2.85232 6.3611e-05
60 1 0.0833333 0.25 0.132508 -2.85232 6.3611e-05
147 1 0.1 0.2 0.199148 -2.84845 0.00463986
153 1 0.15 0.15 0.199148 -2.84845 0.00463986
172 1 0.15 0.25 0.199148 -2.84845 0.00463986
174 1 0.133333 0.2 0.132508 -2.85232 6.3611e-05
176 1 0.183333 0.15 0.132508 -2.85232 6.3611e-05
177 1 0.183333 0.25 0.132508 -2.85232 6.3611e-05
299 1 0.2 0.2 0.199148 -2.84845 0.00463986
300 1 0.233333 0.2 0.132508 -2.85232 6.3611e-05
301 1 0.25 0.15 0.199148 -2.84845 0.00463986
302 1 0.25 0.25 0.199148 -2.84845 0.00463986
306 1 0.283333 0.15 0.132508 -2.85232 6.3611e-05
329 1 0.283333 0.25 0.132508 -2.85232 6.3611e-05
427 1 0.3 0.2 0.199148 -2.84845 0.00463986
454 1 0.333333 0.2 0.132508 -2.85232 6.3611e-05
433 1 0.35 0.15 0.199148 -2.84845 0.00463986
452 1 0.35 0.25 0.199148 -2.84845 0.00463986
456 1 0.383333 0.15 0.132508 -2.85232 6.3611e-05
457 1 0.383333 0.25 0.132508 -2.85232 6.3611e-05
579 1 0.4 0.2 0.199148 -2.84845 0.00463986
580 1 0.433333 0.2 0.132508 -2.85232 6.3611e-05
581 1 0.45 0.15 0.199148 -2.84845 0.00463986
582 1 0.45 0.25 0.199148 -2.84845 0.00463986
586 1 0.483333 0.15 0.132508 -2.85232 6.3611e-05
609 1 0.483333 0.25 0.132508 -2.85232 6.3611e-05
707 1 0.5 0.2 0.199148 -2.84845 0.00463986
713 1 0.55 0.15 0.199148 -2.84845 0.00463986
732 1 0.55 0.25 0.199148 -2.84845 0.00463986
734 1 0.533333 0.2 0.132508 -2.85232 6.3611e-05
736 1 0.583333 0.15 0.132508 -2.85232 6.3611e-05
737 1 0.583333 0.25 0.132508 -2.85232 6.3611e-05
859 1 0.6 0.2 0.199148 -2.84845 0.00463986
860 1 0.633333 0.2 0.132508 -2.85232 6.3611e-05
861 1 0.65 0.15 0.199148 -2.84845 0.00463986
862 1 0.65 0.25 0.199148 -2.84845 0.00463986
866 1 0.683333 0.15 0.132508 -2.85232 6.3611e-05
889 1 0.683333 0.25 0.132508 -2.85232 6.3611e-05
987 1 0.7 0.2 0.199148 -2.84845 0.00463986
993 1 0.75 0.15 0.199148 -2.84845 0.00463986
1012 1 0.75 0.25 0.199148 -2.84845 0.00463986
1014 1 0.733333 0.2 0.132508 -2.85232 6.3611e-05
1016 1 0.783333 0.15 0.132508 -2.85232 6.3611e-05
1017 1 0.783333 0.25 0.132508 -2.85232 6.3611e-05
1139 1 0.8 0.2 0.199148 -2.84845 0.00463986
1140 1 0.833333 0.2 0.132508 -2.85232 6.3611e-05
1141 1 0.85 0.15 0.199148 -2.84845 0.00463986
1142 1 0.85 0.25 0.199148 -2.84845 0.00463986
1146 1 0.883333 0.15 0.132508 -2.85232 6.3611e-05
1169 1 0.883333 0.25 0.132508 -2.85232 6.3611e-05
1267 1 0.9 0.2 0.199148 -2.84845 0.00463986
1273 1 0.95 0.15 0.199148 -2.84845 0.00463986
1292 1 0.95 0.25 0.199148 -2.84845 0.00463986
1294 1 0.933333 0.2 0.132508 -2.85232 6.3611e-05
1296 1 0.983333 0.15 0.132508 -2.85232 6.3611e-05
1297 1 0.983333 0.25 0.132508 -2.85232 6.3611e-05
37 1 0 0.3 0.199148 -2.84845 0.00463986
54 1 8.86546e-18 0.4 0.199148 -2.84845 0.00463986
55 1 0.0333333 0.4 0.132508 -2.85232 6.3611e-05
56 1 0.05 0.35 0.199148 -2.84845 0.00463986
58 1 0.0333333 0.3 0.132508 -2.85232 6.3611e-05
61 1 0.0833333 0.35 0.132508 -2.85232 6.3611e-05
167 1 0.1 0.4 0.199148 -2.84845 0.00463986
170 1 0.1 0.3 0.199148 -2.84845 0.00463986
171 1 0.133333 0.3 0.132508 -2.85232 6.3611e-05
173 1 0.15 0.35 0.199148 -2.84845 0.00463986
201 1 0.133333 0.4 0.132508 -2.85232 6.3611e-05
203 1 0.183333 0.35 0.132508 -2.85232 6.3611e-05
296 1 0.2 0.3 0.199148 -2.84845 0.00463986
323 1 0.2 0.4 0.199148 -2.84845 0.00463986
324 1 0.233333 0.4 0.132508 -2.85232 6.3611e-05
325 1 0.25 0.35 0.199148 -2.84845 0.00463986
327 1 0.233333 0.3 0.132508 -2.85232 6.3611e-05
330 1 0.283333 0.35 0.132508 -2.85232 6.3611e-05
447 1 0.3 0.4 0.199148 -2.84845 0.00463986
450 1 0.3 0.3 0.199148 -2.84845 0.00463986
451 1 0.333333 0.3 0.132508 -2.85232 6.3611e-05
481 1 0.333333 0.4 0.132508 -2.85232 6.3611e-05
453 1 0.35 0.35 0.199148 -2.84845 0.00463986
483 1 0.383333 0.35 0.132508 -2.85232 6.3611e-05
576 1 0.4 0.3 0.199148 -2.84845 0.00463986
603 1 0.4 0.4 0.199148 -2.84845 0.00463986
604 1 0.433333 0.4 0.132508 -2.85232 6.3611e-05
605 1 0.45 0.35 0.199148 -2.84845 0.00463986
607 1 0.433333 0.3 0.132508 -2.85232 6.3611e-05
610 1 0.483333 0.35 0.132508 -2.85232 6.3611e-05
727 1 0.5 0.4 0.199148 -2.84845 0.00463986
730 1 0.5 0.3 0.199148 -2.84845 0.00463986
731 1 0.533333 0.3 0.132508 -2.85232 6.3611e-05
733 1 0.55 0.35 0.199148 -2.84845 0.00463986
761 1 0.533333 0.4 0.132508 -2.85232 6.3611e-05
763 1 0.583333 0.35 0.132508 -2.85232 6.3611e-05
856 1 0.6 0.3 0.199148 -2.84845 0.00463986
883 1 0.6 0.4 0.199148 -2.84845 0.00463986
884 1 0.633333 0.4 0.132508 -2.85232 6.3611e-05
885 1 0.65 0.35 0.199148 -2.84845 0.00463986
887 1 0.633333 0.3 0.132508 -2.85232 6.3611e-05
890 1 0.683333 0.35 0.132508 -2.85232 6.3611e-05
1007 1 0.7 0.4 0.199148 -2.84845 0.00463986
1010 1 0.7 0.3 0.199148 -2.84845 0.00463986
1011 1 0.733333 0.3 0.132508 -2.85232 6.3611e-05
1013 1 0.75 0.35 0.199148 -2.84845 0.00463986
1041 1 0.733333 0.4 0.132508 -2.85232 6.3611e-05
1043 1 0.783333 0.35 0.132508 -2.85232 6.3611e-05
1136 1 0.8 0.3 0.199148 -2.84845 0.00463986
1163 1 0.8 0.4 0.199148 -2.84845 0.00463986
1164 1 0.833333 0.4 0.132508 -2.85232 6.3611e-05
1167 1 0.833333 0.3 0.132508 -2.85232 6.3611e-05
1165 1 0.85 0.35 0.199148 -2.84845 0.00463986
1170 1 0.883333 0.35 0.132508 -2.85232 6.3611e-05
1287 1 0.9 0.4 0.199148 -2.84845 0.00463986
1290 1 0.9 0.3 0.199148 -2.84845 0.00463986
1291 1 0.933333 0.3 0.132508 -2.85232 6.3611e-05
1293 1 0.95 0.35 0.199148 -2.84845 0.00463986
1316 1 0.933333 0.4 0.132508 -2.85232 6.3611e-05
1318 1 0.983333 0.35 0.132508 -2.85232 6.3611e-05
51 1 0 0.5 0.199148 -2.84845 0.00463986
57 1 0.05 0.45 0.199148 -2.84845 0.00463986
74 1 0.05 0.55 0.199148 -2.84845 0.00463986
76 1 0.0333333 0.5 0.132508 -2.85232 6.3611e-05
78 1 0.0833333 0.45 0.132508 -2.85232 6.3611e-05
79 1 0.0833333 0.55 0.132508 -2.85232 6.3611e-05
197 1 0.1 0.5 0.199148 -2.84845 0.00463986
198 1 0.133333 0.5 0.132508 -2.85232 6.3611e-05
199 1 0.15 0.45 0.199148 -2.84845 0.00463986
200 1 0.15 0.55 0.199148 -2.84845 0.00463986
204 1 0.183333 0.45 0.132508 -2.85232 6.3611e-05
227 1 0.183333 0.55 0.132508 -2.85232 6.3611e-05
320 1 0.2 0.5 0.199148 -2.84845 0.00463986
326 1 0.25 0.45 0.199148 -2.84845 0.00463986
352 1 0.25 0.55 0.199148 -2.84845 0.00463986
354 1 0.233333 0.5 0.132508 -2.85232 6.3611e-05
356 1 0.283333 0.45 0.132508 -2.85232 6.3611e-05
357 1 0.283333 0.55 0.132508 -2.85232 6.3611e-05
477 1 0.3 0.5 0.199148 -2.84845 0.00463986
478 1 0.333333 0.5 0.132508 -2.85232 6.3611e-05
479 1 0.35 0.45 0.199148 -2.84845 0.00463986
480 1 0.35 0.55 0.199148 -2.84845 0.00463986
484 1 0.383333 0.45 0.132508 -2.85232 6.3611e-05
507 1 0.383333 0.55 0.132508 -2.85232 6.3611e-05
600 1 0.4 0.5 0.199148 -2.84845 0.00463986
606 1 0.45 0.45 0.199148 -2.84845 0.00463986
632 1 0.45 0.55 0.199148 -2.84845 0.00463986
634 1 0.433333 0.5 0.132508 -2.85232 6.3611e-05
636 1 0.483333 0.45 0.132508 -2.85232 6.3611e-05
637 1 0.483333 0.55 0.132508 -2.85232 6.3611e-05
757 1 0.5 0.5 0.199148 -2.84845 0.00463986
758 1 0.533333 0.5 0.132508 -2.85232 6.3611e-05
759 1 0.55 0.45 0.199148 -2.84845 0.00463986
760 1 0.55 0.55 0.199148 -2.84845 0.00463986
764 1 0.583333 0.45 0.132508 -2.85232 6.3611e-05
787 1 0.583333 0.55 0.132508 -2.85232 6.3611e-05
880 1 0.6 0.5 0.199148 -2.84845 0.00463986
886 1 0.65 0.45 0.199148 -2.84845 0.00463986
912 1 0.65 0.55 0.199148 -2.84845 0.00463986
914 1 0.633333 0.5 0.132508 -2.85232 6.3611e-05
916 1 0.683333 0.45 0.132508 -2.85232 6.3611e-05
917 1 0.683333 0.55 0.132508 -2.85232 6.3611e-05
1037 1 0.7 0.5 0.199148 -2.84845 0.00463986
1038 1 0.733333 0.5 0.132508 -2.85232 6.3611e-05
1039 1 0.75 0.45 0.199148 -2.84845 0.00463986
1040 1 0.75 0.55 0.199148 -2.84845 0.00463986
1044 1 0.783333 0.45 0.132508 -2.85232 6.3611e-05
1067 1 0.783333 0.55 0.132508 -2.85232 6.3611e-05
1160 1 0.8 0.5 0.199148 -2.84845 0.00463986
1194 1 0.833333 0.5 0.132508 -2.85232 6.3611e-05
1166 1 0.85 0.45 0.199148 -2.84845 0.00463986
1192 1 0.85 0.55 0.199148 -2.84845 0.00463986
1196 1 0.883333 0.45 0.132508 -2.85232 6.3611e-05
1197 1 0.883333 0.55 0.132508 -2.85232 6.3611e-05
1312 1 0.9 0.5 0.199148 -2.84845 0.00463986
1313 1 0.933333 0.5 0.132508 -2.85232 6.3611e-05
1314 1 0.95 0.45 0.199148 -2.84845 0.00463986
1315 1 0.95 0.55 0.199148 -2.84845 0.00463986
1319 1 0.983333 0.45 0.132508 -2.85232 6.3611e-05
1336 1 0.983333 0.55 0.132508 -2.85232 6.3611e-05
69 1 1.77309e-17 0.7 0.199148 -2.84845 0.00463986
72 1 0 0.6 0.199148 -2.84845 0.00463986
73 1 0.0333333 0.6 0.132508 -2.85232 6.3611e-05