ITEM: TIMESTEP
51
ITEM: NUMBER OF ATOMS
3200
ITEM: BOX BOUNDS pp pp ss
0.0000000000000000e+00 5.0092067021360698e+01
0.0000000000000000e+00 2.8920668379047399e+01
3.8451742731260487e-02 3.5381988531723906e+01
ITEM: ATOMS id type xs ys zs c_peratom c_csym
1 1 0 0.1 -0.00523265 -2.47716 24.5015
2 1 0.0166667 0.05 0.060389 -2.83183 0.00503574
4 1 0 0 -0.00523265 -2.47716 24.5015
5 1 0.05 0.05 -0.00523265 -2.47716 24.5015
45 1 0.0666667 0.1 0.060389 -2.83183 0.00503574
48 1 0.0666667 0 0.060389 -2.83183 0.00503574
49 1 0.1 0 -0.00523265 -2.47716 24.5015
50 1 0.116667 0.05 0.060389 -2.83183 0.00503574
66 1 0.1 0.1 -0.00523265 -2.47716 24.5015
67 1 0.15 0.05 -0.00523265 -2.47716 24.5015
155 1 0.166667 0 0.060389 -2.83183 0.00503574
178 1 0.166667 0.1 0.060389 -2.83183 0.00503574
179 1 0.2 0.1 -0.00523265 -2.47716 24.5015
180 1 0.216667 0.05 0.060389 -2.83183 0.00503574
182 1 0.2 0 -0.00523265 -2.47716 24.5015
183 1 0.25 0.05 -0.00523265 -2.47716 24.5015
304 1 0.266667 0.1 0.060389 -2.83183 0.00503574
307 1 0.266667 0 0.060389 -2.83183 0.00503574
308 1 0.3 0 -0.00523265 -2.47716 24.5015
309 1 0.316667 0.05 0.060389 -2.83183 0.00503574
335 1 0.3 0.1 -0.00523265 -2.47716 24.5015
336 1 0.35 0.05 -0.00523265 -2.47716 24.5015
435 1 0.366667 0 0.060389 -2.83183 0.00503574
458 1 0.366667 0.1 0.060389 -2.83183 0.00503574
459 1 0.4 0.1 -0.00523265 -2.47716 24.5015
460 1 0.416667 0.05 0.060389 -2.83183 0.00503574
462 1 0.4 0 -0.00523265 -2.47716 24.5015
463 1 0.45 0.05 -0.00523265 -2.47716 24.5015
584 1 0.466667 0.1 0.060389 -2.83183 0.00503574
587 1 0.466667 0 0.060389 -2.83183 0.00503574
588 1 0.5 0 -0.00523265 -2.47716 24.5015
615 1 0.5 0.1 -0.00523265 -2.47716 24.5015
589 1 0.516667 0.05 0.060389 -2.83183 0.00503574
616 1 0.55 0.05 -0.00523265 -2.47716 24.5015
715 1 0.566667 0 0.060389 -2.83183 0.00503574
738 1 0.566667 0.1 0.060389 -2.83183 0.00503574
739 1 0.6 0.1 -0.00523265 -2.47716 24.5015
740 1 0.616667 0.05 0.060389 -2.83183 0.00503574
742 1 0.6 0 -0.00523265 -2.47716 24.5015
743 1 0.65 0.05 -0.00523265 -2.47716 24.5015
864 1 0.666667 0.1 0.060389 -2.83183 0.00503574
867 1 0.666667 0 0.060389 -2.83183 0.00503574
868 1 0.7 0 -0.00523265 -2.47716 24.5015
869 1 0.716667 0.05 0.060389 -2.83183 0.00503574
895 1 0.7 0.1 -0.00523265 -2.47716 24.5015
896 1 0.75 0.05 -0.00523265 -2.47716 24.5015
995 1 0.766667 0 0.060389 -2.83183 0.00503574
1018 1 0.766667 0.1 0.060389 -2.83183 0.00503574
1019 1 0.8 0.1 -0.00523265 -2.47716 24.5015
1020 1 0.816667 0.05 0.060389 -2.83183 0.00503574
1022 1 0.8 0 -0.00523265 -2.47716 24.5015
1023 1 0.85 0.05 -0.00523265 -2.47716 24.5015
1144 1 0.866667 0.1 0.060389 -2.83183 0.00503574
1147 1 0.866667 0 0.060389 -2.83183 0.00503574
1148 1 0.9 0 -0.00523265 -2.47716 24.5015
1149 1 0.916667 0.05 0.060389 -2.83183 0.00503574
1175 1 0.9 0.1 -0.00523265 -2.47716 24.5015
1176 1 0.95 0.05 -0.00523265 -2.47716 24.5015
1275 1 0.966667 0 0.060389 -2.83183 0.00503574
1298 1 0.966667 0.1 0.060389 -2.83183 0.00503574
3 1 0.0166667 0.15 0.060389 -2.83183 0.00503574
7 1 0.0166667 0.25 0.060389 -2.83183 0.00503574
9 1 0 0.2 -0.00523265 -2.47716 24.5015
10 1 0.05 0.15 -0.00523265 -2.47716 24.5015
11 1 0.05 0.25 -0.00523265 -2.47716 24.5015
62 1 0.0666667 0.2 0.060389 -2.83183 0.00503574
63 1 0.1 0.2 -0.00523265 -2.47716 24.5015
64 1 0.116667 0.15 0.060389 -2.83183 0.00503574
65 1 0.116667 0.25 0.060389 -2.83183 0.00503574
68 1 0.15 0.15 -0.00523265 -2.47716 24.5015
85 1 0.15 0.25 -0.00523265 -2.47716 24.5015
175 1 0.166667 0.2 0.060389 -2.83183 0.00503574
181 1 0.216667 0.15 0.060389 -2.83183 0.00503574
207 1 0.216667 0.25 0.060389 -2.83183 0.00503574
209 1 0.2 0.2 -0.00523265 -2.47716 24.5015
210 1 0.25 0.15 -0.00523265 -2.47716 24.5015
211 1 0.25 0.25 -0.00523265 -2.47716 24.5015
331 1 0.266667 0.2 0.060389 -2.83183 0.00503574
332 1 0.3 0.2 -0.00523265 -2.47716 24.5015
333 1 0.316667 0.15 0.060389 -2.83183 0.00503574
334 1 0.316667 0.25 0.060389 -2.83183 0.00503574
337 1 0.35 0.15 -0.00523265 -2.47716 24.5015
363 1 0.35 0.25 -0.00523265 -2.47716 24.5015
455 1 0.366667 0.2 0.060389 -2.83183 0.00503574
461 1 0.416667 0.15 0.060389 -2.83183 0.00503574
487 1 0.416667 0.25 0.060389 -2.83183 0.00503574
489 1 0.4 0.2 -0.00523265 -2.47716 24.5015
490 1 0.45 0.15 -0.00523265 -2.47716 24.5015
491 1 0.45 0.25 -0.00523265 -2.47716 24.5015
611 1 0.466667 0.2 0.060389 -2.83183 0.00503574
612 1 0.5 0.2 -0.00523265 -2.47716 24.5015
613 1 0.516667 0.15 0.060389 -2.83183 0.00503574
614 1 0.516667 0.25 0.060389 -2.83183 0.00503574
617 1 0.55 0.15 -0.00523265 -2.47716 24.5015
643 1 0.55 0.25 -0.00523265 -2.47716 24.5015
735 1 0.566667 0.2 0.060389 -2.83183 0.00503574
741 1 0.616667 0.15 0.060389 -2.83183 0.00503574
767 1 0.616667 0.25 0.060389 -2.83183 0.00503574
769 1 0.6 0.2 -0.00523265 -2.47716 24.5015
770 1 0.65 0.15 -0.00523265 -2.47716 24.5015
771 1 0.65 0.25 -0.00523265 -2.47716 24.5015
891 1 0.666667 0.2 0.060389 -2.83183 0.00503574
892 1 0.7 0.2 -0.00523265 -2.47716 24.5015
893 1 0.716667 0.15 0.060389 -2.83183 0.00503574
894 1 0.716667 0.25 0.060389 -2.83183 0.00503574
897 1 0.75 0.15 -0.00523265 -2.47716 24.5015
923 1 0.75 0.25 -0.00523265 -2.47716 24.5015
1015 1 0.766667 0.2 0.060389 -2.83183 0.00503574
1021 1 0.816667 0.15 0.060389 -2.83183 0.00503574
1047 1 0.816667 0.25 0.060389 -2.83183 0.00503574
1049 1 0.8 0.2 -0.00523265 -2.47716 24.5015
1050 1 0.85 0.15 -0.00523265 -2.47716 24.5015
1051 1 0.85 0.25 -0.00523265 -2.47716 24.5015
1171 1 0.866667 0.2 0.060389 -2.83183 0.00503574
1172 1 0.9 0.2 -0.00523265 -2.47716 24.5015
1173 1 0.916667 0.15 0.060389 -2.83183 0.00503574
1174 1 0.916667 0.25 0.060389 -2.83183 0.00503574
1177 1 0.95 0.15 -0.00523265 -2.47716 24.5015
1203 1 0.95 0.25 -0.00523265 -2.47716 24.5015
1295 1 0.966667 0.2 0.060389 -2.83183 0.00503574
6 1 0 0.3 -0.00523265 -2.47716 24.5015
8 1 0.0166667 0.35 0.060389 -2.83183 0.00503574
15 1 0 0.4 -0.00523265 -2.47716 24.5015
16 1 0.05 0.35 -0.00523265 -2.47716 24.5015
59 1 0.0666667 0.3 0.060389 -2.83183 0.00503574
80 1 0.0666667 0.4 0.060389 -2.83183 0.00503574
81 1 0.1 0.4 -0.00523265 -2.47716 24.5015
82 1 0.116667 0.35 0.060389 -2.83183 0.00503574
84 1 0.1 0.3 -0.00523265 -2.47716 24.5015
86 1 0.15 0.35 -0.00523265 -2.47716 24.5015
202 1 0.166667 0.4 0.060389 -2.83183 0.00503574
205 1 0.166667 0.3 0.060389 -2.83183 0.00503574
206 1 0.2 0.3 -0.00523265 -2.47716 24.5015
208 1 0.216667 0.35 0.060389 -2.83183 0.00503574
233 1 0.2 0.4 -0.00523265 -2.47716 24.5015
234 1 0.25 0.35 -0.00523265 -2.47716 24.5015
328 1 0.266667 0.3 0.060389 -2.83183 0.00503574
358 1 0.266667 0.4 0.060389 -2.83183 0.00503574
359 1 0.3 0.4 -0.00523265 -2.47716 24.5015
360 1 0.316667 0.35 0.060389 -2.83183 0.00503574
362 1 0.3 0.3 -0.00523265 -2.47716 24.5015
364 1 0.35 0.35 -0.00523265 -2.47716 24.5015
482 1 0.366667 0.4 0.060389 -2.83183 0.00503574
485 1 0.366667 0.3 0.060389 -2.83183 0.00503574
486 1 0.4 0.3 -0.00523265 -2.47716 24.5015
488 1 0.416667 0.35 0.060389 -2.83183 0.00503574
513 1 0.4 0.4 -0.00523265 -2.47716 24.5015
514 1 0.45 0.35 -0.00523265 -2.47716 24.5015
608 1 0.466667 0.3 0.060389 -2.83183 0.00503574
638 1 0.466667 0.4 0.060389 -2.83183 0.00503574
639 1 0.5 0.4 -0.00523265 -2.47716 24.5015
642 1 0.5 0.3 -0.00523265 -2.47716 24.5015
640 1 0.516667 0.35 0.060389 -2.83183 0.00503574
644 1 0.55 0.35 -0.00523265 -2.47716 24.5015
762 1 0.566667 0.4 0.060389 -2.83183 0.00503574
765 1 0.566667 0.3 0.060389 -2.83183 0.00503574
766 1 0.6 0.3 -0.00523265 -2.47716 24.5015
768 1 0.616667 0.35 0.060389 -2.83183 0.00503574
793 1 0.6 0.4 -0.00523265 -2.47716 24.5015
794 1 0.65 0.35 -0.00523265 -2.47716 24.5015
888 1 0.666667 0.3 0.060389 -2.83183 0.00503574
918 1 0.666667 0.4 0.060389 -2.83183 0.00503574
919 1 0.7 0.4 -0.00523265 -2.47716 24.5015
920 1 0.716667 0.35 0.060389 -2.83183 0.00503574
922 1 0.7 0.3 -0.00523265 -2.47716 24.5015
924 1 0.75 0.35 -0.00523265 -2.47716 24.5015
1042 1 0.766667 0.4 0.060389 -2.83183 0.00503574
1045 1 0.766667 0.3 0.060389 -2.83183 0.00503574
1046 1 0.8 0.3 -0.00523265 -2.47716 24.5015
1048 1 0.816667 0.35 0.060389 -2.83183 0.00503574
1073 1 0.8 0.4 -0.00523265 -2.47716 24.5015
1074 1 0.85 0.35 -0.00523265 -2.47716 24.5015
1168 1 0.866667 0.3 0.060389 -2.83183 0.00503574
1198 1 0.866667 0.4 0.060389 -2.83183 0.00503574
1199 1 0.9 0.4 -0.00523265 -2.47716 24.5015
1200 1 0.916667 0.35 0.060389 -2.83183 0.00503574
1202 1 0.9 0.3 -0.00523265 -2.47716 24.5015
1204 1 0.95 0.35 -0.00523265 -2.47716 24.5015
1317 1 0.966667 0.4 0.060389 -2.83183 0.00503574
1320 1 0.966667 0.3 0.060389 -2.83183 0.00503574
12 1 0 0.5 -0.00523265 -2.47716 24.5015
13 1 0.0166667 0.45 0.060389 -2.83183 0.00503574
14 1 0.0166667 0.55 0.060389 -2.83183 0.00503574
17 1 0.05 0.45 -0.00523265 -2.47716 24.5015
22 1 0.05 0.55 -0.00523265 -2.47716 24.5015
77 1 0.0666667 0.5 0.060389 -2.83183 0.00503574
83 1 0.116667 0.45 0.060389 -2.83183 0.00503574
100 1 0.116667 0.55 0.060389 -2.83183 0.00503574
102 1 0.1 0.5 -0.00523265 -2.47716 24.5015
103 1 0.15 0.45 -0.00523265 -2.47716 24.5015
104 1 0.15 0.55 -0.00523265 -2.47716 24.5015
229 1 0.166667 0.5 0.060389 -2.83183 0.00503574
230 1 0.2 0.5 -0.00523265 -2.47716 24.5015
231 1 0.216667 0.45 0.060389 -2.83183 0.00503574
232 1 0.216667 0.55 0.060389 -2.83183 0.00503574
235 1 0.25 0.45 -0.00523265 -2.47716 24.5015
250 1 0.25 0.55 -0.00523265 -2.47716 24.5015
355 1 0.266667 0.5 0.060389 -2.83183 0.00503574
361 1 0.316667 0.45 0.060389 -2.83183 0.00503574
380 1 0.316667 0.55 0.060389 -2.83183 0.00503574
382 1 0.3 0.5 -0.00523265 -2.47716 24.5015
383 1 0.35 0.45 -0.00523265 -2.47716 24.5015
384 1 0.35 0.55 -0.00523265 -2.47716 24.5015
509 1 0.366667 0.5 0.060389 -2.83183 0.00503574
510 1 0.4 0.5 -0.00523265 -2.47716 24.5015
511 1 0.416667 0.45 0.060389 -2.83183 0.00503574
512 1 0.416667 0.55 0.060389 -2.83183 0.00503574
515 1 0.45 0.45 -0.00523265 -2.47716 24.5015
530 1 0.45 0.55 -0.00523265 -2.47716 24.5015
635 1 0.466667 0.5 0.060389 -2.83183 0.00503574
662 1 0.5 0.5 -0.00523265 -2.47716 24.5015
641 1 0.516667 0.45 0.060389 -2.83183 0.00503574
660 1 0.516667 0.55 0.060389 -2.83183 0.00503574
663 1 0.55 0.45 -0.00523265 -2.47716 24.5015
664 1 0.55 0.55 -0.00523265 -2.47716 24.5015
789 1 0.566667 0.5 0.060389 -2.83183 0.00503574
790 1 0.6 0.5 -0.00523265 -2.47716 24.5015
791 1 0.616667 0.45 0.060389 -2.83183 0.00503574
792 1 0.616667 0.55 0.060389 -2.83183 0.00503574
795 1 0.65 0.45 -0.00523265 -2.47716 24.5015
810 1 0.65 0.55 -0.00523265 -2.47716 24.5015
915 1 0.666667 0.5 0.060389 -2.83183 0.00503574
921 1 0.716667 0.45 0.060389 -2.83183 0.00503574
940 1 0.716667 0.55 0.060389 -2.83183 0.00503574
942 1 0.7 0.5 -0.00523265 -2.47716 24.5015
943 1 0.75 0.45 -0.00523265 -2.47716 24.5015
944 1 0.75 0.55 -0.00523265 -2.47716 24.5015
1069 1 0.766667 0.5 0.060389 -2.83183 0.00503574
1070 1 0.8 0.5 -0.00523265 -2.47716 24.5015
1071 1 0.816667 0.45 0.060389 -2.83183 0.00503574
1072 1 0.816667 0.55 0.060389 -2.83183 0.00503574
1075 1 0.85 0.45 -0.00523265 -2.47716 24.5015
1090 1 0.85 0.55 -0.00523265 -2.47716 24.5015
1195 1 0.866667 0.5 0.060389 -2.83183 0.00503574
1201 1 0.916667 0.45 0.060389 -2.83183 0.00503574
1220 1 0.916667 0.55 0.060389 -2.83183 0.00503574
1222 1 0.9 0.5 -0.00523265 -2.47716 24.5015
1223 1 0.95 0.45 -0.00523265 -2.47716 24.5015
1224 1 0.95 0.55 -0.00523265 -2.47716 24.5015
1338 1 0.966667 0.5 0.060389 -2.83183 0.00503574
18 1 0 0.7 -0.00523265 -2.47716 24.5015
19 1 0.0166667 0.65 0.060389 -2.83183 0.00503574
21 1 0 0.6 -0.00523265 -2.47716 24.5015
23 1 0.05 0.65 -0.00523265 -2.47716 24.5015
95 1 0.0666667 0.7 0.060389 -2.83183 0.00503574
98 1 0.0666667 0.6 0.060389 -2.83183 0.00503574
99 1 0.1 0.6 -0.00523265 -2.47716 24.5015
101 1 0.116667 0.65 0.060389 -2.83183 0.00503574
114 1 0.1 0.7 -0.00523265 -2.47716 24.5015
115 1 0.15 0.65 -0.00523265 -2.47716 24.5015
226 1 0.166667 0.6 0.060389 -2.83183 0.00503574
245 1 0.166667 0.7 0.060389 -2.83183 0.00503574
246 1 0.2 0.7 -0.00523265 -2.47716 24.5015
247 1 0.216667 0.65 0.060389 -2.83183 0.00503574
249 1 0.2 0.6 -0.00523265 -2.47716 24.5015
251 1 0.25 0.65 -0.00523265 -2.47716 24.5015
375 1 0.266667 0.7 0.060389 -2.83183 0.00503574
378 1 0.266667 0.6 0.060389 -2.83183 0.00503574
379 1 0.3 0.6 -0.00523265 -2.47716 24.5015
381 1 0.316667 0.65 0.060389 -2.83183 0.00503574
394 1 0.3 0.7 -0.00523265 -2.47716 24.5015
395 1 0.35 0.65 -0.00523265 -2.47716 24.5015
506 1 0.366667 0.6 0.060389 -2.83183 0.00503574
525 1 0.366667 0.7 0.060389 -2.83183 0.00503574
526 1 0.4 0.7 -0.00523265 -2.47716 24.5015
527 1 0.416667 0.65 0.060389 -2.83183 0.00503574
529 1 0.4 0.6 -0.00523265 -2.47716 24.5015
531 1 0.45 0.65 -0.00523265 -2.47716 24.5015
655 1 0.466667 0.7 0.060389 -2.83183 0.00503574
658 1 0.466667 0.6 0.060389 -2.83183 0.00503574
659 1 0.5 0.6 -0.00523265 -2.47716 24.5015
674 1 0.5 0.7 -0.00523265 -2.47716 24.5015
661 1 0.516667 0.65 0.060389 -2.83183 0.00503574
675 1 0.55 0.65 -0.00523265 -2.47716 24.5015
786 1 0.566667 0.6 0.060389 -2.83183 0.00503574
805 1 0.566667 0.7 0.060389 -2.83183 0.00503574
806 1 0.6 0.7 -0.00523265 -2.47716 24.5015
807 1 0.616667 0.65 0.060389 -2.83183 0.00503574
809 1 0.6 0.6 -0.00523265 -2.47716 24.5015
811 1 0.65 0.65 -0.00523265 -2.47716 24.5015
935 1 0.666667 0.7 0.060389 -2.83183 0.00503574
938 1 0.666667 0.6 0.060389 -2.83183 0.00503574
939 1 0.7 0.6 -0.00523265 -2.47716 24.5015
941 1 0.716667 0.65 0.060389 -2.83183 0.00503574
954 1 0.7 0.7 -0.00523265 -2.47716 24.5015
955 1 0.75 0.65 -0.00523265 -2.47716 24.5015
1066 1 0.766667 0.6 0.060389 -2.83183 0.00503574
1085 1 0.766667 0.7 0.060389 -2.83183 0.00503574
1086 1 0.8 0.7 -0.00523265 -2.47716 24.5015
1087 1 0.816667 0.65 0.060389 -2.83183 0.00503574
1089 1 0.8 0.6 -0.00523265 -2.47716 24.5015
1091 1 0.85 0.65 -0.00523265 -2.47716 24.5015
1215 1 0.866667 0.7 0.060389 -2.83183 0.00503574
1218 1 0.866667 0.6 0.060389 -2.83183 0.00503574
1219 1 0.9 0.6 -0.00523265 -2.47716 24.5015
1221 1 0.916667 0.65 0.060389 -2.83183 0.00503574
1234 1 0.9 0.7 -0.00523265 -2.47716 24.5015
1235 1 0.95 0.65 -0.00523265 -2.47716 24.5015
1335 1 0.966667 0.6 0.060389 -2.83183 0.00503574
1348 1 0.966667 0.7 0.060389 -2.83183 0.00503574
20 1 0.0166667 0.75 0.060389 -2.83183 0.00503574
25 1 0.0166667 0.85 0.060389 -2.83183 0.00503574
27 1 0 0.8 -0.00523265 -2.47716 24.5015
28 1 0.05 0.75 -0.00523265 -2.47716 24.5015
29 1 0.05 0.85 -0.00523265 -2.47716 24.5015
110 1 0.0666667 0.8 0.060389 -2.83183 0.00503574
111 1 0.1 0.8 -0.00523265 -2.47716 24.5015
112 1 0.116667 0.75 0.060389 -2.83183 0.00503574
113 1 0.116667 0.85 0.060389 -2.83183 0.00503574
116 1 0.15 0.75 -0.00523265 -2.47716 24.5015
119 1 0.15 0.85 -0.00523265 -2.47716 24.5015
242 1 0.166667 0.8 0.060389 -2.83183 0.00503574
248 1 0.216667 0.75 0.060389 -2.83183 0.00503574
255 1 0.216667 0.85 0.060389 -2.83183 0.00503574
257 1 0.2 0.8 -0.00523265 -2.47716 24.5015
258 1 0.25 0.75 -0.00523265 -2.47716 24.5015
259 1 0.25 0.85 -0.00523265 -2.47716 24.5015
390 1 0.266667 0.8 0.060389 -2.83183 0.00503574
391 1 0.3 0.8 -0.00523265 -2.47716 24.5015
392 1 0.316667 0.75 0.060389 -2.83183 0.00503574
393 1 0.316667 0.85 0.060389 -2.83183 0.00503574
396 1 0.35 0.75 -0.00523265 -2.47716 24.5015
399 1 0.35 0.85 -0.00523265 -2.47716 24.5015
522 1 0.366667 0.8 0.060389 -2.83183 0.00503574
528 1 0.416667 0.75 0.060389 -2.83183 0.00503574
535 1 0.416667 0.85 0.060389 -2.83183 0.00503574
537 1 0.4 0.8 -0.00523265 -2.47716 24.5015
538 1 0.45 0.75 -0.00523265 -2.47716 24.5015
539 1 0.45 0.85 -0.00523265 -2.47716 24.5015
670 1 0.466667 0.8 0.060389 -2.83183 0.00503574
671 1 0.5 0.8 -0.00523265 -2.47716 24.5015
672 1 0.516667 0.75 0.060389 -2.83183 0.00503574
673 1 0.516667 0.85 0.060389 -2.83183 0.00503574
676 1 0.55 0.75 -0.00523265 -2.47716 24.5015
679 1 0.55 0.85 -0.00523265 -2.47716 24.5015
802 1 0.566667 0.8 0.060389 -2.83183 0.00503574
808 1 0.616667 0.75 0.060389 -2.83183 0.00503574
815 1 0.616667 0.85 0.060389 -2.83183 0.00503574
817 1 0.6 0.8 -0.00523265 -2.47716 24.5015
818 1 0.65 0.75 -0.00523265 -2.47716 24.5015
819 1 0.65 0.85 -0.00523265 -2.47716 24.5015
950 1 0.666667 0.8 0.060389 -2.83183 0.00503574
951 1 0.7 0.8 -0.00523265 -2.47716 24.5015
952 1 0.716667 0.75 0.060389 -2.83183 0.00503574
953 1 0.716667 0.85 0.060389 -2.83183 0.00503574
956 1 0.75 0.75 -0.00523265 -2.47716 24.5015
959 1 0.75 0.85 -0.00523265 -2.47716 24.5015
1082 1 0.766667 0.8 0.060389 -2.83183 0.00503574
1088 1 0.816667 0.75 0.060389 -2.83183 0.00503574
1095 1 0.816667 0.85 0.060389 -2.83183 0.00503574
1097 1 0.8 0.8 -0.00523265 -2.47716 24.5015
1098 1 0.85 0.75 -0.00523265 -2.47716 24.5015
1099 1 0.85 0.85 -0.00523265 -2.47716 24.5015
1230 1 0.866667 0.8 0.060389 -2.83183 0.00503574
1231 1 0.9 0.8 -0.00523265 -2.47716 24.5015
1232 1 0.916667 0.75 0.060389 -2.83183 0.00503574
1233 1 0.916667 0.85 0.060389 -2.83183 0.00503574
1236 1 0.95 0.75 -0.00523265 -2.47716 24.5015
1239 1 0.95 0.85 -0.00523265 -2.47716 24.5015
1345 1 0.966667 0.8 0.060389 -2.83183 0.00503574
24 1 0 0.9 -0.00523265 -2.47716 24.5015
26 1 0.0166667 0.95 0.060389 -2.83183 0.00503574
30 1 0.05 0.95 -0.00523265 -2.47716 24.5015
107 1 0.0666667 0.9 0.060389 -2.83183 0.00503574
117 1 0.116667 0.95 0.060389 -2.83183 0.00503574
118 1 0.1 0.9 -0.00523265 -2.47716 24.5015
120 1 0.15 0.95 -0.00523265 -2.47716 24.5015
253 1 0.166667 0.9 0.060389 -2.83183 0.00503574
254 1 0.2 0.9 -0.00523265 -2.47716 24.5015
256 1 0.216667 0.95 0.060389 -2.83183 0.00503574
260 1 0.25 0.95 -0.00523265 -2.47716 24.5015
387 1 0.266667 0.9 0.060389 -2.83183 0.00503574
397 1 0.316667 0.95 0.060389 -2.83183 0.00503574
398 1 0.3 0.9 -0.00523265 -2.47716 24.5015
400 1 0.35 0.95 -0.00523265 -2.47716 24.5015
533 1 0.366667 0.9 0.060389 -2.83183 0.00503574
534 1 0.4 0.9 -0.00523265 -2.47716 24.5015
536 1 0.416667 0.95 0.060389 -2.83183 0.00503574
540 1 0.45 0.95 -0.00523265 -2.47716 24.5015
667 1 0.466667 0.9 0.060389 -2.83183 0.00503574
678 1 0.5 0.9 -0.00523265 -2.47716 24.5015
677 1 0.516667 0.95 0.060389 -2.83183 0.00503574
680 1 0.55 0.95 -0.00523265 -2.47716 24.5015
813 1 0.566667 0.9 0.060389 -2.83183 0.00503574
814 1 0.6 0.9 -0.00523265 -2.47716 24.5015
816 1 0.616667 0.95 0.060389 -2.83183 0.00503574
820 1 0.65 0.95 -0.00523265 -2.47716 24.5015
947 1 0.666667 0.9 0.060389 -2.83183 0.00503574
957 1 0.716667 0.95 0.060389 -2.83183 0.00503574
958 1 0.7 0.9 -0.00523265 -2.47716 24.5015
960 1 0.75 0.95 -0.00523265 -2.47716 24.5015
1093 1 0.766667 0.9 0.060389 -2.83183 0.00503574
1094 1 0.8 0.9 -0.00523265 -2.47716 24.5015
1096 1 0.816667 0.95 0.060389 -2.83183 0.00503574
1100 1 0.85 0.95 -0.00523265 -2.47716 24.5015
1227 1 0.866667 0.9 0.060389 -2.83183 0.00503574
1237 1 0.916667 0.95 0.060389 -2.83183 0.00503574
1238 1 0.9 0.9 -0.00523265 -2.47716 24.5015
1240 1 0.95 0.95 -0.00523265 -2.47716 24.5015
1350 1 0.966667 0.9 0.060389 -2.83183 0.00503574
31 1 0 0.1 0.193955 -2.85004 8.18224e-08
34 1 0 0 0.193955 -2.85004 8.18224e-08
35 1 0.0333333 0 0.12717 -2.85119 7.61123e-08
36 1 0.05 0.05 0.193955 -2.85004 8.18224e-08
44 1 0.0333333 0.1 0.12717 -2.85119 7.61123e-08
46 1 0.0833333 0.05 0.12717 -2.85119 7.61123e-08
135 1 0.1 0 0.193955 -2.85004 8.18224e-08
150 1 0.1 0.1 0.193955 -2.85004 8.18224e-08
151 1 0.133333 0.1 0.12717 -2.85119 7.61123e-08
152 1 0.15 0.05 0.193955 -2.85004 8.18224e-08
154 1 0.133333 0 0.12717 -2.85119 7.61123e-08
156 1 0.183333 0.05 0.12717 -2.85119 7.61123e-08
280 1 0.2 0.1 0.193955 -2.85004 8.18224e-08
283 1 0.2 0 0.193955 -2.85004 8.18224e-08
284 1 0.233333 0 0.12717 -2.85119 7.61123e-08
285 1 0.25 0.05 0.193955 -2.85004 8.18224e-08
303 1 0.233333 0.1 0.12717 -2.85119 7.61123e-08
305 1 0.283333 0.05 0.12717 -2.85119 7.61123e-08
415 1 0.3 0 0.193955 -2.85004 8.18224e-08
430 1 0.3 0.1 0.193955 -2.85004 8.18224e-08
431 1 0.333333 0.1 0.12717 -2.85119 7.61123e-08
434 1 0.333333 0 0.12717 -2.85119 7.61123e-08
432 1 0.35 0.05 0.193955 -2.85004 8.18224e-08
436 1 0.383333 0.05 0.12717 -2.85119 7.61123e-08
560 1 0.4 0.1 0.193955 -2.85004 8.18224e-08
563 1 0.4 0 0.193955 -2.85004 8.18224e-08
564 1 0.433333 0 0.12717 -2.85119 7.61123e-08
565 1 0.45 0.05 0.193955 -2.85004 8.18224e-08
583 1 0.433333 0.1 0.12717 -2.85119 7.61123e-08
585 1 0.483333 0.05 0.12717 -2.85119 7.61123e-08
695 1 0.5 0 0.193955 -2.85004 8.18224e-08
710 1 0.5 0.1 0.193955 -2.85004 8.18224e-08
711 1 0.533333 0.1 0.12717 -2.85119 7.61123e-08
712 1 0.55 0.05 0.193955 -2.85004 8.18224e-08
714 1 0.533333 0 0.12717 -2.85119 7.61123e-08
716 1 0.583333 0.05 0.12717 -2.85119 7.61123e-08
840 1 0.6 0.1 0.193955 -2.85004 8.18224e-08
843 1 0.6 0 0.193955 -2.85004 8.18224e-08
844 1 0.633333 0 0.12717 -2.85119 7.61123e-08
845 1 0.65 0.05 0.193955 -2.85004 8.18224e-08
863 1 0.633333 0.1 0.12717 -2.85119 7.61123e-08
865 1 0.683333 0.05 0.12717 -2.85119 7.61123e-08
975 1 0.7 0 0.193955 -2.85004 8.18224e-08
990 1 0.7 0.1 0.193955 -2.85004 8.18224e-08
991 1 0.733333 0.1 0.12717 -2.85119 7.61123e-08
992 1 0.75 0.05 0.193955 -2.85004 8.18224e-08
994 1 0.733333 0 0.12717 -2.85119 7.61123e-08
996 1 0.783333 0.05 0.12717 -2.85119 7.61123e-08
1120 1 0.8 0.1 0.193955 -2.85004 8.18224e-08
1123 1 0.8 0 0.193955 -2.85004 8.18224e-08
1124 1 0.833333 0 0.12717 -2.85119 7.61123e-08
1143 1 0.833333 0.1 0.12717 -2.85119 7.61123e-08
1125 1 0.85 0.05 0.193955 -2.85004 8.18224e-08
1145 1 0.883333 0.05 0.12717 -2.85119 7.61123e-08
1255 1 0.9 0 0.193955 -2.85004 8.18224e-08
1270 1 0.9 0.1 0.193955 -2.85004 8.18224e-08
1271 1 0.933333 0.1 0.12717 -2.85119 7.61123e-08
1272 1 0.95 0.05 0.193955 -2.85004 8.18224e-08
1274 1 0.933333 0 0.12717 -2.85119 7.61123e-08
1276 1 0.983333 0.05 0.12717 -2.85119 7.61123e-08
40 1 0 0.2 0.193955 -2.85004 8.18224e-08
41 1 0.0333333 0.2 0.12717 -2.85119 7.61123e-08
42 1 0.05 0.15 0.193955 -2.85004 8.18224e-08
43 1 0.05 0.25 0.193955 -2.85004 8.18224e-08
47 1 0.0833333 0.15 0.12717 -2.85119 7.61123e-08
60 1 0.0833333 0.25 0.12717 -2.85119 7.61123e-08
147 1 0.1 0.2 0.193955 -2.85004 8.18224e-08
153 1 0.15 0.15 0.193955 -2.85004 8.18224e-08
172 1 0.15 0.25 0.193955 -2.85004 8.18224e-08
174 1 0.133333 0.2 0.12717 -2.85119 7.61123e-08
176 1 0.183333 0.15 0.12717 -2.85119 7.61123e-08
177 1 0.183333 0.25 0.12717 -2.85119 7.61123e-08
299 1 0.2 0.2 0.193955 -2.85004 8.18224e-08
300 1 0.233333 0.2 0.12717 -2.85119 7.61123e-08
301 1 0.25 0.15 0.193955 -2.85004 8.18224e-08
302 1 0.25 0.25 0.193955 -2.85004 8.18224e-08
306 1 0.283333 0.15 0.12717 -2.85119 7.61123e-08
329 1 0.283333 0.25 0.12717 -2.85119 7.61123e-08
427 1 0.3 0.2 0.193955 -2.85004 8.18224e-08
454 1 0.333333 0.2 0.12717 -2.85119 7.61123e-08
433 1 0.35 0.15 0.193955 -2.85004 8.18224e-08
452 1 0.35 0.25 0.193955 -2.85004 8.18224e-08
456 1 0.383333 0.15 0.12717 -2.85119 7.61123e-08
457 1 0.383333 0.25 0.12717 -2.85119 7.61123e-08
579 1 0.4 0.2 0.193955 -2.85004 8.18224e-08
580 1 0.433333 0.2 0.12717 -2.85119 7.61123e-08
581 1 0.45 0.15 0.193955 -2.85004 8.18224e-08
582 1 0.45 0.25 0.193955 -2.85004 8.18224e-08
586 1 0.483333 0.15 0.12717 -2.85119 7.61123e-08
609 1 0.483333 0.25 0.12717 -2.85119 7.61123e-08
707 1 0.5 0.2 0.193955 -2.85004 8.18224e-08
713 1 0.55 0.15 0.193955 -2.85004 8.18224e-08
732 1 0.55 0.25 0.193955 -2.85004 8.18224e-08
734 1 0.533333 0.2 0.12717 -2.85119 7.61123e-08
736 1 0.583333 0.15 0.12717 -2.85119 7.61123e-08
737 1 0.583333 0.25 0.12717 -2.85119 7.61123e-08
859 1 0.6 0.2 0.193955 -2.85004 8.18224e-08
860 1 0.633333 0.2 0.12717 -2.85119 7.61123e-08
861 1 0.65 0.15 0.193955 -2.85004 8.18224e-08
862 1 0.65 0.25 0.193955 -2.85004 8.18224e-08
866 1 0.683333 0.15 0.12717 -2.85119 7.61123e-08
889 1 0.683333 0.25 0.12717 -2.85119 7.61123e-08
987 1 0.7 0.2 0.193955 -2.85004 8.18224e-08
993 1 0.75 0.15 0.193955 -2.85004 8.18224e-08
1012 1 0.75 0.25 0.193955 -2.85004 8.18224e-08
1014 1 0.733333 0.2 0.12717 -2.85119 7.61123e-08
1016 1 0.783333 0.15 0.12717 -2.85119 7.61123e-08
1017 1 0.783333 0.25 0.12717 -2.85119 7.61123e-08
1139 1 0.8 0.2 0.193955 -2.85004 8.18224e-08
1140 1 0.833333 0.2 0.12717 -2.85119 7.61123e-08
1141 1 0.85 0.15 0.193955 -2.85004 8.18224e-08
1142 1 0.85 0.25 0.193955 -2.85004 8.18224e-08
1146 1 0.883333 0.15 0.12717 -2.85119 7.61123e-08
1169 1 0.883333 0.25 0.12717 -2.85119 7.61123e-08
1267 1 0.9 0.2 0.193955 -2.85004 8.18224e-08
1273 1 0.95 0.15 0.193955 -2.85004 8.18224e-08
1292 1 0.95 0.25 0.193955 -2.85004 8.18224e-08
1294 1 0.933333 0.2 0.12717 -2.85119 7.61123e-08
1296 1 0.983333 0.15 0.12717 -2.85119 7.61123e-08
1297 1 0.983333 0.25 0.12717 -2.85119 7.61123e-08
37 1 0 0.3 0.193955 -2.85004 8.18224e-08
54 1 8.86546e-18 0.4 0.193955 -2.85004 8.18224e-08
55 1 0.0333333 0.4 0.12717 -2.85119 7.61123e-08
56 1 0.05 0.35 0.193955 -2.85004 8.18224e-08
58 1 0.0333333 0.3 0.12717 -2.85119 7.61123e-08
61 1 0.0833333 0.35 0.12717 -2.85119 7.61123e-08
167 1 0.1 0.4 0.193955 -2.85004 8.18224e-08
170 1 0.1 0.3 0.193955 -2.85004 8.18224e-08
171 1 0.133333 0.3 0.12717 -2.85119 7.61123e-08
173 1 0.15 0.35 0.193955 -2.85004 8.18224e-08
201 1 0.133333 0.4 0.12717 -2.85119 7.61123e-08
203 1 0.183333 0.35 0.12717 -2.85119 7.61123e-08
296 1 0.2 0.3 0.193955 -2.85004 8.18224e-08
323 1 0.2 0.4 0.193955 -2.85004 8.18224e-08
324 1 0.233333 0.4 0.12717 -2.85119 7.61123e-08
325 1 0.25 0.35 0.193955 -2.85004 8.18224e-08
327 1 0.233333 0.3 0.12717 -2.85119 7.61123e-08
330 1 0.283333 0.35 0.12717 -2.85119 7.61123e-08
447 1 0.3 0.4 0.193955 -2.85004 8.18224e-08
450 1 0.3 0.3 0.193955 -2.85004 8.18224e-08
451 1 0.333333 0.3 0.12717 -2.85119 7.61123e-08
481 1 0.333333 0.4 0.12717 -2.85119 7.61123e-08
453 1 0.35 0.35 0.193955 -2.85004 8.18224e-08
483 1 0.383333 0.35 0.12717 -2.85119 7.61123e-08
576 1 0.4 0.3 0.193955 -2.85004 8.18224e-08
603 1 0.4 0.4 0.193955 -2.85004 8.18224e-08
604 1 0.433333 0.4 0.12717 -2.85119 7.61123e-08
605 1 0.45 0.35 0.193955 -2.85004 8.18224e-08
607 1 0.433333 0.3 0.12717 -2.85119 7.61123e-08
610 1 0.483333 0.35 0.12717 -2.85119 7.61123e-08
727 1 0.5 0.4 0.193955 -2.85004 8.18224e-08
730 1 0.5 0.3 0.193955 -2.85004 8.18224e-08
731 1 0.533333 0.3 0.12717 -2.85119 7.61123e-08
733 1 0.55 0.35 0.193955 -2.85004 8.18224e-08
761 1 0.533333 0.4 0.12717 -2.85119 7.61123e-08
763 1 0.583333 0.35 0.12717 -2.85119 7.61123e-08
856 1 0.6 0.3 0.193955 -2.85004 8.18224e-08
883 1 0.6 0.4 0.193955 -2.85004 8.18224e-08
884 1 0.633333 0.4 0.12717 -2.85119 7.61123e-08
885 1 0.65 0.35 0.193955 -2.85004 8.18224e-08
887 1 0.633333 0.3 0.12717 -2.85119 7.61123e-08
890 1 0.683333 0.35 0.12717 -2.85119 7.61123e-08
1007 1 0.7 0.4 0.193955 -2.85004 8.18224e-08
1010 1 0.7 0.3 0.193955 -2.85004 8.18224e-08
1011 1 0.733333 0.3 0.12717 -2.85119 7.61123e-08
1013 1 0.75 0.35 0.193955 -2.85004 8.18224e-08
1041 1 0.733333 0.4 0.12717 -2.85119 7.61123e-08
1043 1 0.783333 0.35 0.12717 -2.85119 7.61123e-08
1136 1 0.8 0.3 0.193955 -2.85004 8.18224e-08
1163 1 0.8 0.4 0.193955 -2.85004 8.18224e-08
1164 1 0.833333 0.4 0.12717 -2.85119 7.61123e-08
1167 1 0.833333 0.3 0.12717 -2.85119 7.61123e-08
1165 1 0.85 0.35 0.193955 -2.85004 8.18224e-08
1170 1 0.883333 0.35 0.12717 -2.85119 7.61123e-08
1287 1 0.9 0.4 0.193955 -2.85004 8.18224e-08
1290 1 0.9 0.3 0.193955 -2.85004 8.18224e-08
1291 1 0.933333 0.3 0.12717 -2.85119 7.61123e-08
1293 1 0.95 0.35 0.193955 -2.85004 8.18224e-08
1316 1 0.933333 0.4 0.12717 -2.85119 7.61123e-08
1318 1 0.983333 0.35 0.12717 -2.85119 7.61123e-08
51 1 0 0.5 0.193955 -2.85004 8.18224e-08
57 1 0.05 0.45 0.193955 -2.85004 8.18224e-08
74 1 0.05 0.55 0.193955 -2.85004 8.18224e-08
76 1 0.0333333 0.5 0.12717 -2.85119 7.61123e-08
78 1 0.0833333 0.45 0.12717 -2.85119 7.61123e-08
79 1 0.0833333 0.55 0.12717 -2.85119 7.61123e-08
197 1 0.1 0.5 0.193955 -2.85004 8.18224e-08
198 1 0.133333 0.5 0.12717 -2.85119 7.61123e-08
199 1 0.15 0.45 0.193955 -2.85004 8.18224e-08
200 1 0.15 0.55 0.193955 -2.85004 8.18224e-08
204 1 0.183333 0.45 0.12717 -2.85119 7.61123e-08
227 1 0.183333 0.55 0.12717 -2.85119 7.61123e-08
320 1 0.2 0.5 0.193955 -2.85004 8.18224e-08
326 1 0.25 0.45 0.193955 -2.85004 8.18224e-08
352 1 0.25 0.55 0.193955 -2.85004 8.18224e-08
354 1 0.233333 0.5 0.12717 -2.85119 7.61123e-08
356 1 0.283333 0.45 0.12717 -2.85119 7.61123e-08
357 1 0.283333 0.55 0.12717 -2.85119 7.61123e-08
477 1 0.3 0.5 0.193955 -2.85004 8.18224e-08
478 1 0.333333 0.5 0.12717 -2.85119 7.61123e-08
479 1 0.35 0.45 0.193955 -2.85004 8.18224e-08
480 1 0.35 0.55 0.193955 -2.85004 8.18224e-08
484 1 0.383333 0.45 0.12717 -2.85119 7.61123e-08
507 1 0.383333 0.55 0.12717 -2.85119 7.61123e-08
600 1 0.4 0.5 0.193955 -2.85004 8.18224e-08
606 1 0.45 0.45 0.193955 -2.85004 8.18224e-08
632 1 0.45 0.55 0.193955 -2.85004 8.18224e-08
634 1 0.433333 0.5 0.12717 -2.85119 7.61123e-08
636 1 0.483333 0.45 0.12717 -2.85119 7.61123e-08
637 1 0.483333 0.55 0.12717 -2.85119 7.61123e-08
757 1 0.5 0.5 0.193955 -2.85004 8.18224e-08
758 1 0.533333 0.5 0.12717 -2.85119 7.61123e-08
759 1 0.55 0.45 0.193955 -2.85004 8.18224e-08
760 1 0.55 0.55 0.193955 -2.85004 8.18224e-08
764 1 0.583333 0.45 0.12717 -2.85119 7.61123e-08
787 1 0.583333 0.55 0.12717 -2.85119 7.61123e-08
880 1 0.6 0.5 0.193955 -2.85004 8.18224e-08
886 1 0.65 0.45 0.193955 -2.85004 8.18224e-08
912 1 0.65 0.55 0.193955 -2.85004 8.18224e-08
914 1 0.633333 0.5 0.12717 -2.85119 7.61123e-08
916 1 0.683333 0.45 0.12717 -2.85119 7.61123e-08
917 1 0.683333 0.55 0.12717 -2.85119 7.61123e-08
1037 1 0.7 0.5 0.193955 -2.85004 8.18224e-08
1038 1 0.733333 0.5 0.12717 -2.85119 7.61123e-08
1039 1 0.75 0.45 0.193955 -2.85004 8.18224e-08
1040 1 0.75 0.55 0.193955 -2.85004 8.18224e-08
1044 1 0.783333 0.45 0.12717 -2.85119 7.61123e-08
1067 1 0.783333 0.55 0.12717 -2.85119 7.61123e-08
1160 1 0.8 0.5 0.193955 -2.85004 8.18224e-08
1194 1 0.833333 0.5 0.12717 -2.85119 7.61123e-08
1166 1 0.85 0.45 0.193955 -2.85004 8.18224e-08
1192 1 0.85 0.55 0.193955 -2.85004 8.18224e-08
1196 1 0.883333 0.45 0.12717 -2.85119 7.61123e-08
1197 1 0.883333 0.55 0.12717 -2.85119 7.61123e-08
1312 1 0.9 0.5 0.193955 -2.85004 8.18224e-08
1313 1 0.933333 0.5 0.12717 -2.85119 7.61123e-08
1314 1 0.95 0.45 0.193955 -2.85004 8.18224e-08
1315 1 0.95 0.55 0.193955 -2.85004 8.18224e-08
1319 1 0.983333 0.45 0.12717 -2.85119 7.61123e-08
1336 1 0.983333 0.55 0.12717 -2.85119 7.61123e-08