ITEM: TIMESTEP
49
ITEM: NUMBER OF ATOMS
3200
ITEM: BOX BOUNDS pp pp ss
0.0000000000000000e+00 5.0092067021360698e+01
0.0000000000000000e+00 2.8920668379047399e+01
3.8451742731260487e-02 3.5381988531723906e+01
ITEM: ATOMS id type xs ys zs c_peratom c_csym
1 1 0 0.1 -0.00518901 -2.47718 24.5002
2 1 0.0166667 0.05 0.0604299 -2.83182 0.00500248
4 1 0 0 -0.00518901 -2.47718 24.5002
5 1 0.05 0.05 -0.00518901 -2.47718 24.5002
45 1 0.0666667 0.1 0.0604299 -2.83182 0.00500248
48 1 0.0666667 0 0.0604299 -2.83182 0.00500248
49 1 0.1 0 -0.00518901 -2.47718 24.5002
50 1 0.116667 0.05 0.0604299 -2.83182 0.00500248
66 1 0.1 0.1 -0.00518901 -2.47718 24.5002
67 1 0.15 0.05 -0.00518901 -2.47718 24.5002
155 1 0.166667 0 0.0604299 -2.83182 0.00500248
178 1 0.166667 0.1 0.0604299 -2.83182 0.00500248
179 1 0.2 0.1 -0.00518901 -2.47718 24.5002
180 1 0.216667 0.05 0.0604299 -2.83182 0.00500248
182 1 0.2 0 -0.00518901 -2.47718 24.5002
183 1 0.25 0.05 -0.00518901 -2.47718 24.5002
304 1 0.266667 0.1 0.0604299 -2.83182 0.00500248
307 1 0.266667 0 0.0604299 -2.83182 0.00500248
308 1 0.3 0 -0.00518901 -2.47718 24.5002
309 1 0.316667 0.05 0.0604299 -2.83182 0.00500248
335 1 0.3 0.1 -0.00518901 -2.47718 24.5002
336 1 0.35 0.05 -0.00518901 -2.47718 24.5002
435 1 0.366667 0 0.0604299 -2.83182 0.00500248
458 1 0.366667 0.1 0.0604299 -2.83182 0.00500248
459 1 0.4 0.1 -0.00518901 -2.47718 24.5002
460 1 0.416667 0.05 0.0604299 -2.83182 0.00500248
462 1 0.4 0 -0.00518901 -2.47718 24.5002
463 1 0.45 0.05 -0.00518901 -2.47718 24.5002
584 1 0.466667 0.1 0.0604299 -2.83182 0.00500248
587 1 0.466667 0 0.0604299 -2.83182 0.00500248
588 1 0.5 0 -0.00518901 -2.47718 24.5002
615 1 0.5 0.1 -0.00518901 -2.47718 24.5002
589 1 0.516667 0.05 0.0604299 -2.83182 0.00500248
616 1 0.55 0.05 -0.00518901 -2.47718 24.5002
715 1 0.566667 0 0.0604299 -2.83182 0.00500248
738 1 0.566667 0.1 0.0604299 -2.83182 0.00500248
739 1 0.6 0.1 -0.00518901 -2.47718 24.5002
740 1 0.616667 0.05 0.0604299 -2.83182 0.00500248
742 1 0.6 0 -0.00518901 -2.47718 24.5002
743 1 0.65 0.05 -0.00518901 -2.47718 24.5002
864 1 0.666667 0.1 0.0604299 -2.83182 0.00500248
867 1 0.666667 0 0.0604299 -2.83182 0.00500248
868 1 0.7 0 -0.00518901 -2.47718 24.5002
869 1 0.716667 0.05 0.0604299 -2.83182 0.00500248
895 1 0.7 0.1 -0.00518901 -2.47718 24.5002
896 1 0.75 0.05 -0.00518901 -2.47718 24.5002
995 1 0.766667 0 0.0604299 -2.83182 0.00500248
1018 1 0.766667 0.1 0.0604299 -2.83182 0.00500248
1019 1 0.8 0.1 -0.00518901 -2.47718 24.5002
1020 1 0.816667 0.05 0.0604299 -2.83182 0.00500248
1022 1 0.8 0 -0.00518901 -2.47718 24.5002
1023 1 0.85 0.05 -0.00518901 -2.47718 24.5002
1144 1 0.866667 0.1 0.0604299 -2.83182 0.00500248
1147 1 0.866667 0 0.0604299 -2.83182 0.00500248
1148 1 0.9 0 -0.00518901 -2.47718 24.5002
1149 1 0.916667 0.05 0.0604299 -2.83182 0.00500248
1175 1 0.9 0.1 -0.00518901 -2.47718 24.5002
1176 1 0.95 0.05 -0.00518901 -2.47718 24.5002
1275 1 0.966667 0 0.0604299 -2.83182 0.00500248
1298 1 0.966667 0.1 0.0604299 -2.83182 0.00500248
3 1 0.0166667 0.15 0.0604299 -2.83182 0.00500248
7 1 0.0166667 0.25 0.0604299 -2.83182 0.00500248
9 1 0 0.2 -0.00518901 -2.47718 24.5002
10 1 0.05 0.15 -0.00518901 -2.47718 24.5002
11 1 0.05 0.25 -0.00518901 -2.47718 24.5002
62 1 0.0666667 0.2 0.0604299 -2.83182 0.00500248
63 1 0.1 0.2 -0.00518901 -2.47718 24.5002
64 1 0.116667 0.15 0.0604299 -2.83182 0.00500248
65 1 0.116667 0.25 0.0604299 -2.83182 0.00500248
68 1 0.15 0.15 -0.00518901 -2.47718 24.5002
85 1 0.15 0.25 -0.00518901 -2.47718 24.5002
175 1 0.166667 0.2 0.0604299 -2.83182 0.00500248
181 1 0.216667 0.15 0.0604299 -2.83182 0.00500248
207 1 0.216667 0.25 0.0604299 -2.83182 0.00500248
209 1 0.2 0.2 -0.00518901 -2.47718 24.5002
210 1 0.25 0.15 -0.00518901 -2.47718 24.5002
211 1 0.25 0.25 -0.00518901 -2.47718 24.5002
331 1 0.266667 0.2 0.0604299 -2.83182 0.00500248
332 1 0.3 0.2 -0.00518901 -2.47718 24.5002
333 1 0.316667 0.15 0.0604299 -2.83182 0.00500248
334 1 0.316667 0.25 0.0604299 -2.83182 0.00500248
337 1 0.35 0.15 -0.00518901 -2.47718 24.5002
363 1 0.35 0.25 -0.00518901 -2.47718 24.5002
455 1 0.366667 0.2 0.0604299 -2.83182 0.00500248
461 1 0.416667 0.15 0.0604299 -2.83182 0.00500248
487 1 0.416667 0.25 0.0604299 -2.83182 0.00500248
489 1 0.4 0.2 -0.00518901 -2.47718 24.5002
490 1 0.45 0.15 -0.00518901 -2.47718 24.5002
491 1 0.45 0.25 -0.00518901 -2.47718 24.5002
611 1 0.466667 0.2 0.0604299 -2.83182 0.00500248
612 1 0.5 0.2 -0.00518901 -2.47718 24.5002
613 1 0.516667 0.15 0.0604299 -2.83182 0.00500248
614 1 0.516667 0.25 0.0604299 -2.83182 0.00500248
617 1 0.55 0.15 -0.00518901 -2.47718 24.5002
643 1 0.55 0.25 -0.00518901 -2.47718 24.5002
735 1 0.566667 0.2 0.0604299 -2.83182 0.00500248
741 1 0.616667 0.15 0.0604299 -2.83182 0.00500248
767 1 0.616667 0.25 0.0604299 -2.83182 0.00500248
769 1 0.6 0.2 -0.00518901 -2.47718 24.5002
770 1 0.65 0.15 -0.00518901 -2.47718 24.5002
771 1 0.65 0.25 -0.00518901 -2.47718 24.5002
891 1 0.666667 0.2 0.0604299 -2.83182 0.00500248
892 1 0.7 0.2 -0.00518901 -2.47718 24.5002
893 1 0.716667 0.15 0.0604299 -2.83182 0.00500248
894 1 0.716667 0.25 0.0604299 -2.83182 0.00500248
897 1 0.75 0.15 -0.00518901 -2.47718 24.5002
923 1 0.75 0.25 -0.00518901 -2.47718 24.5002
1015 1 0.766667 0.2 0.0604299 -2.83182 0.00500248
1021 1 0.816667 0.15 0.0604299 -2.83182 0.00500248
1047 1 0.816667 0.25 0.0604299 -2.83182 0.00500248
1049 1 0.8 0.2 -0.00518901 -2.47718 24.5002
1050 1 0.85 0.15 -0.00518901 -2.47718 24.5002
1051 1 0.85 0.25 -0.00518901 -2.47718 24.5002
1171 1 0.866667 0.2 0.0604299 -2.83182 0.00500248
1172 1 0.9 0.2 -0.00518901 -2.47718 24.5002
1173 1 0.916667 0.15 0.0604299 -2.83182 0.00500248
1174 1 0.916667 0.25 0.0604299 -2.83182 0.00500248
1177 1 0.95 0.15 -0.00518901 -2.47718 24.5002
1203 1 0.95 0.25 -0.00518901 -2.47718 24.5002
1295 1 0.966667 0.2 0.0604299 -2.83182 0.00500248
6 1 0 0.3 -0.00518901 -2.47718 24.5002
8 1 0.0166667 0.35 0.0604299 -2.83182 0.00500248
15 1 0 0.4 -0.00518901 -2.47718 24.5002
16 1 0.05 0.35 -0.00518901 -2.47718 24.5002
59 1 0.0666667 0.3 0.0604299 -2.83182 0.00500248
80 1 0.0666667 0.4 0.0604299 -2.83182 0.00500248
81 1 0.1 0.4 -0.00518901 -2.47718 24.5002
82 1 0.116667 0.35 0.0604299 -2.83182 0.00500248
84 1 0.1 0.3 -0.00518901 -2.47718 24.5002
86 1 0.15 0.35 -0.00518901 -2.47718 24.5002
202 1 0.166667 0.4 0.0604299 -2.83182 0.00500248
205 1 0.166667 0.3 0.0604299 -2.83182 0.00500248
206 1 0.2 0.3 -0.00518901 -2.47718 24.5002
208 1 0.216667 0.35 0.0604299 -2.83182 0.00500248
233 1 0.2 0.4 -0.00518901 -2.47718 24.5002
234 1 0.25 0.35 -0.00518901 -2.47718 24.5002
328 1 0.266667 0.3 0.0604299 -2.83182 0.00500248
358 1 0.266667 0.4 0.0604299 -2.83182 0.00500248
359 1 0.3 0.4 -0.00518901 -2.47718 24.5002
360 1 0.316667 0.35 0.0604299 -2.83182 0.00500248
362 1 0.3 0.3 -0.00518901 -2.47718 24.5002
364 1 0.35 0.35 -0.00518901 -2.47718 24.5002
482 1 0.366667 0.4 0.0604299 -2.83182 0.00500248
485 1 0.366667 0.3 0.0604299 -2.83182 0.00500248
486 1 0.4 0.3 -0.00518901 -2.47718 24.5002
488 1 0.416667 0.35 0.0604299 -2.83182 0.00500248
513 1 0.4 0.4 -0.00518901 -2.47718 24.5002
514 1 0.45 0.35 -0.00518901 -2.47718 24.5002
608 1 0.466667 0.3 0.0604299 -2.83182 0.00500248
638 1 0.466667 0.4 0.0604299 -2.83182 0.00500248
639 1 0.5 0.4 -0.00518901 -2.47718 24.5002
642 1 0.5 0.3 -0.00518901 -2.47718 24.5002
640 1 0.516667 0.35 0.0604299 -2.83182 0.00500248
644 1 0.55 0.35 -0.00518901 -2.47718 24.5002
762 1 0.566667 0.4 0.0604299 -2.83182 0.00500248
765 1 0.566667 0.3 0.0604299 -2.83182 0.00500248
766 1 0.6 0.3 -0.00518901 -2.47718 24.5002
768 1 0.616667 0.35 0.0604299 -2.83182 0.00500248
793 1 0.6 0.4 -0.00518901 -2.47718 24.5002
794 1 0.65 0.35 -0.00518901 -2.47718 24.5002
888 1 0.666667 0.3 0.0604299 -2.83182 0.00500248
918 1 0.666667 0.4 0.0604299 -2.83182 0.00500248
919 1 0.7 0.4 -0.00518901 -2.47718 24.5002
920 1 0.716667 0.35 0.0604299 -2.83182 0.00500248
922 1 0.7 0.3 -0.00518901 -2.47718 24.5002
924 1 0.75 0.35 -0.00518901 -2.47718 24.5002
1042 1 0.766667 0.4 0.0604299 -2.83182 0.00500248
1045 1 0.766667 0.3 0.0604299 -2.83182 0.00500248
1046 1 0.8 0.3 -0.00518901 -2.47718 24.5002
1048 1 0.816667 0.35 0.0604299 -2.83182 0.00500248
1073 1 0.8 0.4 -0.00518901 -2.47718 24.5002
1074 1 0.85 0.35 -0.00518901 -2.47718 24.5002
1168 1 0.866667 0.3 0.0604299 -2.83182 0.00500248
1198 1 0.866667 0.4 0.0604299 -2.83182 0.00500248
1199 1 0.9 0.4 -0.00518901 -2.47718 24.5002
1200 1 0.916667 0.35 0.0604299 -2.83182 0.00500248
1202 1 0.9 0.3 -0.00518901 -2.47718 24.5002
1204 1 0.95 0.35 -0.00518901 -2.47718 24.5002
1317 1 0.966667 0.4 0.0604299 -2.83182 0.00500248
1320 1 0.966667 0.3 0.0604299 -2.83182 0.00500248
12 1 0 0.5 -0.00518901 -2.47718 24.5002
13 1 0.0166667 0.45 0.0604299 -2.83182 0.00500248
14 1 0.0166667 0.55 0.0604299 -2.83182 0.00500248
17 1 0.05 0.45 -0.00518901 -2.47718 24.5002
22 1 0.05 0.55 -0.00518901 -2.47718 24.5002
77 1 0.0666667 0.5 0.0604299 -2.83182 0.00500248
83 1 0.116667 0.45 0.0604299 -2.83182 0.00500248
100 1 0.116667 0.55 0.0604299 -2.83182 0.00500248
102 1 0.1 0.5 -0.00518901 -2.47718 24.5002
103 1 0.15 0.45 -0.00518901 -2.47718 24.5002
104 1 0.15 0.55 -0.00518901 -2.47718 24.5002
229 1 0.166667 0.5 0.0604299 -2.83182 0.00500248
230 1 0.2 0.5 -0.00518901 -2.47718 24.5002
231 1 0.216667 0.45 0.0604299 -2.83182 0.00500248
232 1 0.216667 0.55 0.0604299 -2.83182 0.00500248
235 1 0.25 0.45 -0.00518901 -2.47718 24.5002
250 1 0.25 0.55 -0.00518901 -2.47718 24.5002
355 1 0.266667 0.5 0.0604299 -2.83182 0.00500248
361 1 0.316667 0.45 0.0604299 -2.83182 0.00500248
380 1 0.316667 0.55 0.0604299 -2.83182 0.00500248
382 1 0.3 0.5 -0.00518901 -2.47718 24.5002
383 1 0.35 0.45 -0.00518901 -2.47718 24.5002
384 1 0.35 0.55 -0.00518901 -2.47718 24.5002
509 1 0.366667 0.5 0.0604299 -2.83182 0.00500248
510 1 0.4 0.5 -0.00518901 -2.47718 24.5002
511 1 0.416667 0.45 0.0604299 -2.83182 0.00500248
512 1 0.416667 0.55 0.0604299 -2.83182 0.00500248
515 1 0.45 0.45 -0.00518901 -2.47718 24.5002
530 1 0.45 0.55 -0.00518901 -2.47718 24.5002
635 1 0.466667 0.5 0.0604299 -2.83182 0.00500248
662 1 0.5 0.5 -0.00518901 -2.47718 24.5002
641 1 0.516667 0.45 0.0604299 -2.83182 0.00500248
660 1 0.516667 0.55 0.0604299 -2.83182 0.00500248
663 1 0.55 0.45 -0.00518901 -2.47718 24.5002
664 1 0.55 0.55 -0.00518901 -2.47718 24.5002
789 1 0.566667 0.5 0.0604299 -2.83182 0.00500248
790 1 0.6 0.5 -0.00518901 -2.47718 24.5002
791 1 0.616667 0.45 0.0604299 -2.83182 0.00500248
792 1 0.616667 0.55 0.0604299 -2.83182 0.00500248
795 1 0.65 0.45 -0.00518901 -2.47718 24.5002
810 1 0.65 0.55 -0.00518901 -2.47718 24.5002
915 1 0.666667 0.5 0.0604299 -2.83182 0.00500248
921 1 0.716667 0.45 0.0604299 -2.83182 0.00500248
940 1 0.716667 0.55 0.0604299 -2.83182 0.00500248
942 1 0.7 0.5 -0.00518901 -2.47718 24.5002
943 1 0.75 0.45 -0.00518901 -2.47718 24.5002
944 1 0.75 0.55 -0.00518901 -2.47718 24.5002
1069 1 0.766667 0.5 0.0604299 -2.83182 0.00500248
1070 1 0.8 0.5 -0.00518901 -2.47718 24.5002
1071 1 0.816667 0.45 0.0604299 -2.83182 0.00500248
1072 1 0.816667 0.55 0.0604299 -2.83182 0.00500248
1075 1 0.85 0.45 -0.00518901 -2.47718 24.5002
1090 1 0.85 0.55 -0.00518901 -2.47718 24.5002
1195 1 0.866667 0.5 0.0604299 -2.83182 0.00500248
1201 1 0.916667 0.45 0.0604299 -2.83182 0.00500248
1220 1 0.916667 0.55 0.0604299 -2.83182 0.00500248
1222 1 0.9 0.5 -0.00518901 -2.47718 24.5002
1223 1 0.95 0.45 -0.00518901 -2.47718 24.5002
1224 1 0.95 0.55 -0.00518901 -2.47718 24.5002
1338 1 0.966667 0.5 0.0604299 -2.83182 0.00500248
18 1 0 0.7 -0.00518901 -2.47718 24.5002
19 1 0.0166667 0.65 0.0604299 -2.83182 0.00500248
21 1 0 0.6 -0.00518901 -2.47718 24.5002
23 1 0.05 0.65 -0.00518901 -2.47718 24.5002
95 1 0.0666667 0.7 0.0604299 -2.83182 0.00500248
98 1 0.0666667 0.6 0.0604299 -2.83182 0.00500248
99 1 0.1 0.6 -0.00518901 -2.47718 24.5002
101 1 0.116667 0.65 0.0604299 -2.83182 0.00500248
114 1 0.1 0.7 -0.00518901 -2.47718 24.5002
115 1 0.15 0.65 -0.00518901 -2.47718 24.5002
226 1 0.166667 0.6 0.0604299 -2.83182 0.00500248
245 1 0.166667 0.7 0.0604299 -2.83182 0.00500248
246 1 0.2 0.7 -0.00518901 -2.47718 24.5002
247 1 0.216667 0.65 0.0604299 -2.83182 0.00500248
249 1 0.2 0.6 -0.00518901 -2.47718 24.5002
251 1 0.25 0.65 -0.00518901 -2.47718 24.5002
375 1 0.266667 0.7 0.0604299 -2.83182 0.00500248
378 1 0.266667 0.6 0.0604299 -2.83182 0.00500248
379 1 0.3 0.6 -0.00518901 -2.47718 24.5002
381 1 0.316667 0.65 0.0604299 -2.83182 0.00500248
394 1 0.3 0.7 -0.00518901 -2.47718 24.5002
395 1 0.35 0.65 -0.00518901 -2.47718 24.5002
506 1 0.366667 0.6 0.0604299 -2.83182 0.00500248
525 1 0.366667 0.7 0.0604299 -2.83182 0.00500248
526 1 0.4 0.7 -0.00518901 -2.47718 24.5002
527 1 0.416667 0.65 0.0604299 -2.83182 0.00500248
529 1 0.4 0.6 -0.00518901 -2.47718 24.5002
531 1 0.45 0.65 -0.00518901 -2.47718 24.5002
655 1 0.466667 0.7 0.0604299 -2.83182 0.00500248
658 1 0.466667 0.6 0.0604299 -2.83182 0.00500248
659 1 0.5 0.6 -0.00518901 -2.47718 24.5002
674 1 0.5 0.7 -0.00518901 -2.47718 24.5002
661 1 0.516667 0.65 0.0604299 -2.83182 0.00500248
675 1 0.55 0.65 -0.00518901 -2.47718 24.5002
786 1 0.566667 0.6 0.0604299 -2.83182 0.00500248
805 1 0.566667 0.7 0.0604299 -2.83182 0.00500248
806 1 0.6 0.7 -0.00518901 -2.47718 24.5002
807 1 0.616667 0.65 0.0604299 -2.83182 0.00500248
809 1 0.6 0.6 -0.00518901 -2.47718 24.5002
811 1 0.65 0.65 -0.00518901 -2.47718 24.5002
935 1 0.666667 0.7 0.0604299 -2.83182 0.00500248
938 1 0.666667 0.6 0.0604299 -2.83182 0.00500248
939 1 0.7 0.6 -0.00518901 -2.47718 24.5002
941 1 0.716667 0.65 0.0604299 -2.83182 0.00500248
954 1 0.7 0.7 -0.00518901 -2.47718 24.5002
955 1 0.75 0.65 -0.00518901 -2.47718 24.5002
1066 1 0.766667 0.6 0.0604299 -2.83182 0.00500248
1085 1 0.766667 0.7 0.0604299 -2.83182 0.00500248
1086 1 0.8 0.7 -0.00518901 -2.47718 24.5002
1087 1 0.816667 0.65 0.0604299 -2.83182 0.00500248
1089 1 0.8 0.6 -0.00518901 -2.47718 24.5002
1091 1 0.85 0.65 -0.00518901 -2.47718 24.5002
1215 1 0.866667 0.7 0.0604299 -2.83182 0.00500248
1218 1 0.866667 0.6 0.0604299 -2.83182 0.00500248
1219 1 0.9 0.6 -0.00518901 -2.47718 24.5002
1221 1 0.916667 0.65 0.0604299 -2.83182 0.00500248
1234 1 0.9 0.7 -0.00518901 -2.47718 24.5002
1235 1 0.95 0.65 -0.00518901 -2.47718 24.5002
1335 1 0.966667 0.6 0.0604299 -2.83182 0.00500248
1348 1 0.966667 0.7 0.0604299 -2.83182 0.00500248
20 1 0.0166667 0.75 0.0604299 -2.83182 0.00500248
25 1 0.0166667 0.85 0.0604299 -2.83182 0.00500248
27 1 0 0.8 -0.00518901 -2.47718 24.5002
28 1 0.05 0.75 -0.00518901 -2.47718 24.5002
29 1 0.05 0.85 -0.00518901 -2.47718 24.5002
110 1 0.0666667 0.8 0.0604299 -2.83182 0.00500248
111 1 0.1 0.8 -0.00518901 -2.47718 24.5002
112 1 0.116667 0.75 0.0604299 -2.83182 0.00500248
113 1 0.116667 0.85 0.0604299 -2.83182 0.00500248
116 1 0.15 0.75 -0.00518901 -2.47718 24.5002
119 1 0.15 0.85 -0.00518901 -2.47718 24.5002
242 1 0.166667 0.8 0.0604299 -2.83182 0.00500248
248 1 0.216667 0.75 0.0604299 -2.83182 0.00500248
255 1 0.216667 0.85 0.0604299 -2.83182 0.00500248
257 1 0.2 0.8 -0.00518901 -2.47718 24.5002
258 1 0.25 0.75 -0.00518901 -2.47718 24.5002
259 1 0.25 0.85 -0.00518901 -2.47718 24.5002
390 1 0.266667 0.8 0.0604299 -2.83182 0.00500248
391 1 0.3 0.8 -0.00518901 -2.47718 24.5002
392 1 0.316667 0.75 0.0604299 -2.83182 0.00500248
393 1 0.316667 0.85 0.0604299 -2.83182 0.00500248
396 1 0.35 0.75 -0.00518901 -2.47718 24.5002
399 1 0.35 0.85 -0.00518901 -2.47718 24.5002
522 1 0.366667 0.8 0.0604299 -2.83182 0.00500248
528 1 0.416667 0.75 0.0604299 -2.83182 0.00500248
535 1 0.416667 0.85 0.0604299 -2.83182 0.00500248
537 1 0.4 0.8 -0.00518901 -2.47718 24.5002
538 1 0.45 0.75 -0.00518901 -2.47718 24.5002
539 1 0.45 0.85 -0.00518901 -2.47718 24.5002
670 1 0.466667 0.8 0.0604299 -2.83182 0.00500248
671 1 0.5 0.8 -0.00518901 -2.47718 24.5002
672 1 0.516667 0.75 0.0604299 -2.83182 0.00500248
673 1 0.516667 0.85 0.0604299 -2.83182 0.00500248
676 1 0.55 0.75 -0.00518901 -2.47718 24.5002
679 1 0.55 0.85 -0.00518901 -2.47718 24.5002
802 1 0.566667 0.8 0.0604299 -2.83182 0.00500248
808 1 0.616667 0.75 0.0604299 -2.83182 0.00500248
815 1 0.616667 0.85 0.0604299 -2.83182 0.00500248
817 1 0.6 0.8 -0.00518901 -2.47718 24.5002
818 1 0.65 0.75 -0.00518901 -2.47718 24.5002
819 1 0.65 0.85 -0.00518901 -2.47718 24.5002
950 1 0.666667 0.8 0.0604299 -2.83182 0.00500248
951 1 0.7 0.8 -0.00518901 -2.47718 24.5002
952 1 0.716667 0.75 0.0604299 -2.83182 0.00500248
953 1 0.716667 0.85 0.0604299 -2.83182 0.00500248
956 1 0.75 0.75 -0.00518901 -2.47718 24.5002
959 1 0.75 0.85 -0.00518901 -2.47718 24.5002
1082 1 0.766667 0.8 0.0604299 -2.83182 0.00500248
1088 1 0.816667 0.75 0.0604299 -2.83182 0.00500248
1095 1 0.816667 0.85 0.0604299 -2.83182 0.00500248
1097 1 0.8 0.8 -0.00518901 -2.47718 24.5002
1098 1 0.85 0.75 -0.00518901 -2.47718 24.5002
1099 1 0.85 0.85 -0.00518901 -2.47718 24.5002
1230 1 0.866667 0.8 0.0604299 -2.83182 0.00500248
1231 1 0.9 0.8 -0.00518901 -2.47718 24.5002
1232 1 0.916667 0.75 0.0604299 -2.83182 0.00500248
1233 1 0.916667 0.85 0.0604299 -2.83182 0.00500248
1236 1 0.95 0.75 -0.00518901 -2.47718 24.5002
1239 1 0.95 0.85 -0.00518901 -2.47718 24.5002
1345 1 0.966667 0.8 0.0604299 -2.83182 0.00500248
24 1 0 0.9 -0.00518901 -2.47718 24.5002
26 1 0.0166667 0.95 0.0604299 -2.83182 0.00500248
30 1 0.05 0.95 -0.00518901 -2.47718 24.5002
107 1 0.0666667 0.9 0.0604299 -2.83182 0.00500248
117 1 0.116667 0.95 0.0604299 -2.83182 0.00500248
118 1 0.1 0.9 -0.00518901 -2.47718 24.5002
120 1 0.15 0.95 -0.00518901 -2.47718 24.5002
253 1 0.166667 0.9 0.0604299 -2.83182 0.00500248
254 1 0.2 0.9 -0.00518901 -2.47718 24.5002
256 1 0.216667 0.95 0.0604299 -2.83182 0.00500248
260 1 0.25 0.95 -0.00518901 -2.47718 24.5002
387 1 0.266667 0.9 0.0604299 -2.83182 0.00500248
397 1 0.316667 0.95 0.0604299 -2.83182 0.00500248
398 1 0.3 0.9 -0.00518901 -2.47718 24.5002
400 1 0.35 0.95 -0.00518901 -2.47718 24.5002
533 1 0.366667 0.9 0.0604299 -2.83182 0.00500248
534 1 0.4 0.9 -0.00518901 -2.47718 24.5002
536 1 0.416667 0.95 0.0604299 -2.83182 0.00500248
540 1 0.45 0.95 -0.00518901 -2.47718 24.5002
667 1 0.466667 0.9 0.0604299 -2.83182 0.00500248
678 1 0.5 0.9 -0.00518901 -2.47718 24.5002
677 1 0.516667 0.95 0.0604299 -2.83182 0.00500248
680 1 0.55 0.95 -0.00518901 -2.47718 24.5002
813 1 0.566667 0.9 0.0604299 -2.83182 0.00500248
814 1 0.6 0.9 -0.00518901 -2.47718 24.5002
816 1 0.616667 0.95 0.0604299 -2.83182 0.00500248
820 1 0.65 0.95 -0.00518901 -2.47718 24.5002
947 1 0.666667 0.9 0.0604299 -2.83182 0.00500248
957 1 0.716667 0.95 0.0604299 -2.83182 0.00500248
958 1 0.7 0.9 -0.00518901 -2.47718 24.5002
960 1 0.75 0.95 -0.00518901 -2.47718 24.5002
1093 1 0.766667 0.9 0.0604299 -2.83182 0.00500248
1094 1 0.8 0.9 -0.00518901 -2.47718 24.5002
1096 1 0.816667 0.95 0.0604299 -2.83182 0.00500248
1100 1 0.85 0.95 -0.00518901 -2.47718 24.5002
1227 1 0.866667 0.9 0.0604299 -2.83182 0.00500248
1237 1 0.916667 0.95 0.0604299 -2.83182 0.00500248
1238 1 0.9 0.9 -0.00518901 -2.47718 24.5002
1240 1 0.95 0.95 -0.00518901 -2.47718 24.5002
1350 1 0.966667 0.9 0.0604299 -2.83182 0.00500248
31 1 0 0.1 0.193978 -2.85 7.95363e-08
34 1 0 0 0.193978 -2.85 7.95363e-08
35 1 0.0333333 0 0.127204 -2.8512 8.69453e-11
36 1 0.05 0.05 0.193978 -2.85 7.95363e-08
44 1 0.0333333 0.1 0.127204 -2.8512 8.69453e-11
46 1 0.0833333 0.05 0.127204 -2.8512 8.69453e-11
135 1 0.1 0 0.193978 -2.85 7.95363e-08
150 1 0.1 0.1 0.193978 -2.85 7.95363e-08
151 1 0.133333 0.1 0.127204 -2.8512 8.69453e-11
152 1 0.15 0.05 0.193978 -2.85 7.95363e-08
154 1 0.133333 0 0.127204 -2.8512 8.69453e-11
156 1 0.183333 0.05 0.127204 -2.8512 8.69453e-11
280 1 0.2 0.1 0.193978 -2.85 7.95363e-08
283 1 0.2 0 0.193978 -2.85 7.95363e-08
284 1 0.233333 0 0.127204 -2.8512 8.69453e-11
285 1 0.25 0.05 0.193978 -2.85 7.95363e-08
303 1 0.233333 0.1 0.127204 -2.8512 8.69453e-11
305 1 0.283333 0.05 0.127204 -2.8512 8.69453e-11
415 1 0.3 0 0.193978 -2.85 7.95363e-08
430 1 0.3 0.1 0.193978 -2.85 7.95363e-08
431 1 0.333333 0.1 0.127204 -2.8512 8.69453e-11
434 1 0.333333 0 0.127204 -2.8512 8.69453e-11
432 1 0.35 0.05 0.193978 -2.85 7.95363e-08
436 1 0.383333 0.05 0.127204 -2.8512 8.69453e-11
560 1 0.4 0.1 0.193978 -2.85 7.95363e-08
563 1 0.4 0 0.193978 -2.85 7.95363e-08
564 1 0.433333 0 0.127204 -2.8512 8.69453e-11
565 1 0.45 0.05 0.193978 -2.85 7.95363e-08
583 1 0.433333 0.1 0.127204 -2.8512 8.69453e-11
585 1 0.483333 0.05 0.127204 -2.8512 8.69453e-11
695 1 0.5 0 0.193978 -2.85 7.95363e-08
710 1 0.5 0.1 0.193978 -2.85 7.95363e-08
711 1 0.533333 0.1 0.127204 -2.8512 8.69453e-11
712 1 0.55 0.05 0.193978 -2.85 7.95363e-08
714 1 0.533333 0 0.127204 -2.8512 8.69453e-11
716 1 0.583333 0.05 0.127204 -2.8512 8.69453e-11
840 1 0.6 0.1 0.193978 -2.85 7.95363e-08
843 1 0.6 0 0.193978 -2.85 7.95363e-08
844 1 0.633333 0 0.127204 -2.8512 8.69453e-11
845 1 0.65 0.05 0.193978 -2.85 7.95363e-08
863 1 0.633333 0.1 0.127204 -2.8512 8.69453e-11
865 1 0.683333 0.05 0.127204 -2.8512 8.69453e-11
975 1 0.7 0 0.193978 -2.85 7.95363e-08
990 1 0.7 0.1 0.193978 -2.85 7.95363e-08
991 1 0.733333 0.1 0.127204 -2.8512 8.69453e-11
992 1 0.75 0.05 0.193978 -2.85 7.95363e-08
994 1 0.733333 0 0.127204 -2.8512 8.69453e-11
996 1 0.783333 0.05 0.127204 -2.8512 8.69453e-11
1120 1 0.8 0.1 0.193978 -2.85 7.95363e-08
1123 1 0.8 0 0.193978 -2.85 7.95363e-08
1124 1 0.833333 0 0.127204 -2.8512 8.69453e-11
1143 1 0.833333 0.1 0.127204 -2.8512 8.69453e-11
1125 1 0.85 0.05 0.193978 -2.85 7.95363e-08
1145 1 0.883333 0.05 0.127204 -2.8512 8.69453e-11
1255 1 0.9 0 0.193978 -2.85 7.95363e-08
1270 1 0.9 0.1 0.193978 -2.85 7.95363e-08
1271 1 0.933333 0.1 0.127204 -2.8512 8.69452e-11
1272 1 0.95 0.05 0.193978 -2.85 7.95363e-08
1274 1 0.933333 0 0.127204 -2.8512 8.69452e-11
1276 1 0.983333 0.05 0.127204 -2.8512 8.69453e-11
40 1 0 0.2 0.193978 -2.85 7.95363e-08
41 1 0.0333333 0.2 0.127204 -2.8512 8.69453e-11
42 1 0.05 0.15 0.193978 -2.85 7.95363e-08
43 1 0.05 0.25 0.193978 -2.85 7.95363e-08
47 1 0.0833333 0.15 0.127204 -2.8512 8.69453e-11
60 1 0.0833333 0.25 0.127204 -2.8512 8.69453e-11
147 1 0.1 0.2 0.193978 -2.85 7.95363e-08
153 1 0.15 0.15 0.193978 -2.85 7.95363e-08
172 1 0.15 0.25 0.193978 -2.85 7.95363e-08
174 1 0.133333 0.2 0.127204 -2.8512 8.69453e-11
176 1 0.183333 0.15 0.127204 -2.8512 8.69453e-11
177 1 0.183333 0.25 0.127204 -2.8512 8.69453e-11
299 1 0.2 0.2 0.193978 -2.85 7.95363e-08
300 1 0.233333 0.2 0.127204 -2.8512 8.69453e-11
301 1 0.25 0.15 0.193978 -2.85 7.95363e-08
302 1 0.25 0.25 0.193978 -2.85 7.95363e-08
306 1 0.283333 0.15 0.127204 -2.8512 8.69453e-11
329 1 0.283333 0.25 0.127204 -2.8512 8.69453e-11
427 1 0.3 0.2 0.193978 -2.85 7.95363e-08
454 1 0.333333 0.2 0.127204 -2.8512 8.69453e-11
433 1 0.35 0.15 0.193978 -2.85 7.95363e-08
452 1 0.35 0.25 0.193978 -2.85 7.95363e-08
456 1 0.383333 0.15 0.127204 -2.8512 8.69453e-11
457 1 0.383333 0.25 0.127204 -2.8512 8.69453e-11
579 1 0.4 0.2 0.193978 -2.85 7.95363e-08
580 1 0.433333 0.2 0.127204 -2.8512 8.69453e-11
581 1 0.45 0.15 0.193978 -2.85 7.95363e-08
582 1 0.45 0.25 0.193978 -2.85 7.95363e-08
586 1 0.483333 0.15 0.127204 -2.8512 8.69453e-11
609 1 0.483333 0.25 0.127204 -2.8512 8.69453e-11
707 1 0.5 0.2 0.193978 -2.85 7.95363e-08
713 1 0.55 0.15 0.193978 -2.85 7.95363e-08
732 1 0.55 0.25 0.193978 -2.85 7.95363e-08
734 1 0.533333 0.2 0.127204 -2.8512 8.69453e-11
736 1 0.583333 0.15 0.127204 -2.8512 8.69453e-11
737 1 0.583333 0.25 0.127204 -2.8512 8.69453e-11
859 1 0.6 0.2 0.193978 -2.85 7.95363e-08
860 1 0.633333 0.2 0.127204 -2.8512 8.69453e-11
861 1 0.65 0.15 0.193978 -2.85 7.95363e-08
862 1 0.65 0.25 0.193978 -2.85 7.95363e-08
866 1 0.683333 0.15 0.127204 -2.8512 8.69453e-11
889 1 0.683333 0.25 0.127204 -2.8512 8.69453e-11
987 1 0.7 0.2 0.193978 -2.85 7.95363e-08
993 1 0.75 0.15 0.193978 -2.85 7.95363e-08
1012 1 0.75 0.25 0.193978 -2.85 7.95363e-08
1014 1 0.733333 0.2 0.127204 -2.8512 8.69453e-11
1016 1 0.783333 0.15 0.127204 -2.8512 8.69453e-11
1017 1 0.783333 0.25 0.127204 -2.8512 8.69452e-11
1139 1 0.8 0.2 0.193978 -2.85 7.95363e-08
1140 1 0.833333 0.2 0.127204 -2.8512 8.69453e-11
1141 1 0.85 0.15 0.193978 -2.85 7.95363e-08
1142 1 0.85 0.25 0.193978 -2.85 7.95363e-08
1146 1 0.883333 0.15 0.127204 -2.8512 8.69453e-11
1169 1 0.883333 0.25 0.127204 -2.8512 8.69453e-11
1267 1 0.9 0.2 0.193978 -2.85 7.95363e-08
1273 1 0.95 0.15 0.193978 -2.85 7.95363e-08
1292 1 0.95 0.25 0.193978 -2.85 7.95363e-08
1294 1 0.933333 0.2 0.127204 -2.8512 8.69453e-11
1296 1 0.983333 0.15 0.127204 -2.8512 8.69453e-11
1297 1 0.983333 0.25 0.127204 -2.8512 8.69453e-11
37 1 0 0.3 0.193978 -2.85 7.95363e-08
54 1 8.86546e-18 0.4 0.193978 -2.85 7.95363e-08
55 1 0.0333333 0.4 0.127204 -2.8512 8.69453e-11
56 1 0.05 0.35 0.193978 -2.85 7.95363e-08
58 1 0.0333333 0.3 0.127204 -2.8512 8.69453e-11
61 1 0.0833333 0.35 0.127204 -2.8512 8.69453e-11
167 1 0.1 0.4 0.193978 -2.85 7.95363e-08
170 1 0.1 0.3 0.193978 -2.85 7.95363e-08
171 1 0.133333 0.3 0.127204 -2.8512 8.69453e-11
173 1 0.15 0.35 0.193978 -2.85 7.95363e-08
201 1 0.133333 0.4 0.127204 -2.8512 8.69453e-11
203 1 0.183333 0.35 0.127204 -2.8512 8.69453e-11
296 1 0.2 0.3 0.193978 -2.85 7.95363e-08
323 1 0.2 0.4 0.193978 -2.85 7.95363e-08
324 1 0.233333 0.4 0.127204 -2.8512 8.69453e-11
325 1 0.25 0.35 0.193978 -2.85 7.95363e-08
327 1 0.233333 0.3 0.127204 -2.8512 8.69453e-11
330 1 0.283333 0.35 0.127204 -2.8512 8.69453e-11
447 1 0.3 0.4 0.193978 -2.85 7.95363e-08
450 1 0.3 0.3 0.193978 -2.85 7.95363e-08
451 1 0.333333 0.3 0.127204 -2.8512 8.69453e-11
481 1 0.333333 0.4 0.127204 -2.8512 8.69453e-11
453 1 0.35 0.35 0.193978 -2.85 7.95363e-08
483 1 0.383333 0.35 0.127204 -2.8512 8.69453e-11
576 1 0.4 0.3 0.193978 -2.85 7.95363e-08
603 1 0.4 0.4 0.193978 -2.85 7.95363e-08
604 1 0.433333 0.4 0.127204 -2.8512 8.69453e-11
605 1 0.45 0.35 0.193978 -2.85 7.95363e-08
607 1 0.433333 0.3 0.127204 -2.8512 8.69453e-11
610 1 0.483333 0.35 0.127204 -2.8512 8.69453e-11
727 1 0.5 0.4 0.193978 -2.85 7.95363e-08
730 1 0.5 0.3 0.193978 -2.85 7.95363e-08
731 1 0.533333 0.3 0.127204 -2.8512 8.69453e-11
733 1 0.55 0.35 0.193978 -2.85 7.95363e-08
761 1 0.533333 0.4 0.127204 -2.8512 8.69453e-11
763 1 0.583333 0.35 0.127204 -2.8512 8.69453e-11
856 1 0.6 0.3 0.193978 -2.85 7.95363e-08
883 1 0.6 0.4 0.193978 -2.85 7.95363e-08
884 1 0.633333 0.4 0.127204 -2.8512 8.69453e-11
885 1 0.65 0.35 0.193978 -2.85 7.95363e-08
887 1 0.633333 0.3 0.127204 -2.8512 8.69453e-11
890 1 0.683333 0.35 0.127204 -2.8512 8.69453e-11
1007 1 0.7 0.4 0.193978 -2.85 7.95363e-08
1010 1 0.7 0.3 0.193978 -2.85 7.95363e-08
1011 1 0.733333 0.3 0.127204 -2.8512 8.69453e-11
1013 1 0.75 0.35 0.193978 -2.85 7.95363e-08
1041 1 0.733333 0.4 0.127204 -2.8512 8.69453e-11
1043 1 0.783333 0.35 0.127204 -2.8512 8.69452e-11
1136 1 0.8 0.3 0.193978 -2.85 7.95363e-08
1163 1 0.8 0.4 0.193978 -2.85 7.95363e-08
1164 1 0.833333 0.4 0.127204 -2.8512 8.69453e-11
1167 1 0.833333 0.3 0.127204 -2.8512 8.69453e-11
1165 1 0.85 0.35 0.193978 -2.85 7.95363e-08
1170 1 0.883333 0.35 0.127204 -2.8512 8.69453e-11
1287 1 0.9 0.4 0.193978 -2.85 7.95363e-08
1290 1 0.9 0.3 0.193978 -2.85 7.95363e-08
1291 1 0.933333 0.3 0.127204 -2.8512 8.69453e-11
1293 1 0.95 0.35 0.193978 -2.85 7.95363e-08
1316 1 0.933333 0.4 0.127204 -2.8512 8.69452e-11
1318 1 0.983333 0.35 0.127204 -2.8512 8.69453e-11
51 1 0 0.5 0.193978 -2.85 7.95363e-08
57 1 0.05 0.45 0.193978 -2.85 7.95363e-08
74 1 0.05 0.55 0.193978 -2.85 7.95363e-08
76 1 0.0333333 0.5 0.127204 -2.8512 8.69453e-11
78 1 0.0833333 0.45 0.127204 -2.8512 8.69453e-11
79 1 0.0833333 0.55 0.127204 -2.8512 8.69453e-11
197 1 0.1 0.5 0.193978 -2.85 7.95363e-08
198 1 0.133333 0.5 0.127204 -2.8512 8.69453e-11
199 1 0.15 0.45 0.193978 -2.85 7.95363e-08
200 1 0.15 0.55 0.193978 -2.85 7.95363e-08
204 1 0.183333 0.45 0.127204 -2.8512 8.69453e-11
227 1 0.183333 0.55 0.127204 -2.8512 8.69453e-11
320 1 0.2 0.5 0.193978 -2.85 7.95363e-08
326 1 0.25 0.45 0.193978 -2.85 7.95363e-08
352 1 0.25 0.55 0.193978 -2.85 7.95363e-08
354 1 0.233333 0.5 0.127204 -2.8512 8.69453e-11
356 1 0.283333 0.45 0.127204 -2.8512 8.69453e-11
357 1 0.283333 0.55 0.127204 -2.8512 8.69453e-11
477 1 0.3 0.5 0.193978 -2.85 7.95363e-08
478 1 0.333333 0.5 0.127204 -2.8512 8.69453e-11
479 1 0.35 0.45 0.193978 -2.85 7.95363e-08
480 1 0.35 0.55 0.193978 -2.85 7.95363e-08
484 1 0.383333 0.45 0.127204 -2.8512 8.69453e-11
507 1 0.383333 0.55 0.127204 -2.8512 8.69453e-11
600 1 0.4 0.5 0.193978 -2.85 7.95363e-08
606 1 0.45 0.45 0.193978 -2.85 7.95363e-08
632 1 0.45 0.55 0.193978 -2.85 7.95363e-08
634 1 0.433333 0.5 0.127204 -2.8512 8.69453e-11
636 1 0.483333 0.45 0.127204 -2.8512 8.69453e-11
637 1 0.483333 0.55 0.127204 -2.8512 8.69453e-11
757 1 0.5 0.5 0.193978 -2.85 7.95363e-08
758 1 0.533333 0.5 0.127204 -2.8512 8.69453e-11
759 1 0.55 0.45 0.193978 -2.85 7.95363e-08
760 1 0.55 0.55 0.193978 -2.85 7.95363e-08
764 1 0.583333 0.45 0.127204 -2.8512 8.69453e-11
787 1 0.583333 0.55 0.127204 -2.8512 8.69453e-11
880 1 0.6 0.5 0.193978 -2.85 7.95363e-08
886 1 0.65 0.45 0.193978 -2.85 7.95363e-08
912 1 0.65 0.55 0.193978 -2.85 7.95363e-08
914 1 0.633333 0.5 0.127204 -2.8512 8.69453e-11
916 1 0.683333 0.45 0.127204 -2.8512 8.69453e-11
917 1 0.683333 0.55 0.127204 -2.8512 8.69452e-11
1037 1 0.7 0.5 0.193978 -2.85 7.95363e-08
1038 1 0.733333 0.5 0.127204 -2.8512 8.69453e-11
1039 1 0.75 0.45 0.193978 -2.85 7.95363e-08
1040 1 0.75 0.55 0.193978 -2.85 7.95363e-08
1044 1 0.783333 0.45 0.127204 -2.8512 8.69453e-11
1067 1 0.783333 0.55 0.127204 -2.8512 8.69453e-11
1160 1 0.8 0.5 0.193978 -2.85 7.95363e-08
1194 1 0.833333 0.5 0.127204 -2.8512 8.69453e-11
1166 1 0.85 0.45 0.193978 -2.85 7.95363e-08
1192 1 0.85 0.55 0.193978 -2.85 7.95363e-08
1196 1 0.883333 0.45 0.127204 -2.8512 8.69453e-11
1197 1 0.883333 0.55 0.127204 -2.8512 8.69453e-11
1312 1 0.9 0.5 0.193978 -2.85 7.95363e-08
1313 1 0.933333 0.5 0.127204 -2.8512 8.69452e-11
1314 1 0.95 0.45 0.193978 -2.85 7.95363e-08
1315 1 0.95 0.55 0.193978 -2.85 7.95363e-08
1319 1 0.983333 0.45 0.127204 -2.8512 8.69453e-11
1336 1 0.983333 0.55 0.127204 -2.8512 8.69453e-11
69 1 1.77309e-17 0.7 0.193978 -2.85 7.95363e-08
72 1 0 0.6 0.193978 -2.85 7.95363e-08
73 1 0.0333333 0.6 0.127204 -2.8512 8.69453e-11
75 1 0.05 0.65 0.193978 -2.85 7.95363e-08