ITEM: TIMESTEP
55
ITEM: NUMBER OF ATOMS
3200
ITEM: BOX BOUNDS pp pp ss
0.0000000000000000e+00 5.0092067021360698e+01
0.0000000000000000e+00 2.8920668379047399e+01
3.8451742731260487e-02 3.5381988531723906e+01
ITEM: ATOMS id type xs ys zs c_peratom c_csym
1 1 0 0.1 -0.00536754 -2.47711 24.5066
2 1 0.0166667 0.05 0.0602644 -2.83185 0.00508191
4 1 0 0 -0.00536754 -2.47711 24.5066
5 1 0.05 0.05 -0.00536754 -2.47711 24.5066
45 1 0.0666667 0.1 0.0602644 -2.83185 0.00508191
48 1 0.0666667 0 0.0602644 -2.83185 0.00508191
49 1 0.1 0 -0.00536754 -2.47711 24.5066
50 1 0.116667 0.05 0.0602644 -2.83185 0.00508191
66 1 0.1 0.1 -0.00536754 -2.47711 24.5066
67 1 0.15 0.05 -0.00536754 -2.47711 24.5066
155 1 0.166667 0 0.0602644 -2.83185 0.00508191
178 1 0.166667 0.1 0.0602644 -2.83185 0.00508191
179 1 0.2 0.1 -0.00536754 -2.47711 24.5066
180 1 0.216667 0.05 0.0602644 -2.83185 0.00508191
182 1 0.2 0 -0.00536754 -2.47711 24.5066
183 1 0.25 0.05 -0.00536754 -2.47711 24.5066
304 1 0.266667 0.1 0.0602644 -2.83185 0.00508191
307 1 0.266667 0 0.0602644 -2.83185 0.00508191
308 1 0.3 0 -0.00536754 -2.47711 24.5066
309 1 0.316667 0.05 0.0602644 -2.83185 0.00508191
335 1 0.3 0.1 -0.00536754 -2.47711 24.5066
336 1 0.35 0.05 -0.00536754 -2.47711 24.5066
435 1 0.366667 0 0.0602644 -2.83185 0.00508191
458 1 0.366667 0.1 0.0602644 -2.83185 0.00508191
459 1 0.4 0.1 -0.00536754 -2.47711 24.5066
460 1 0.416667 0.05 0.0602644 -2.83185 0.00508191
462 1 0.4 0 -0.00536754 -2.47711 24.5066
463 1 0.45 0.05 -0.00536754 -2.47711 24.5066
584 1 0.466667 0.1 0.0602644 -2.83185 0.00508191
587 1 0.466667 0 0.0602644 -2.83185 0.00508191
588 1 0.5 0 -0.00536754 -2.47711 24.5066
615 1 0.5 0.1 -0.00536754 -2.47711 24.5066
589 1 0.516667 0.05 0.0602644 -2.83185 0.00508191
616 1 0.55 0.05 -0.00536754 -2.47711 24.5066
715 1 0.566667 0 0.0602644 -2.83185 0.00508191
738 1 0.566667 0.1 0.0602644 -2.83185 0.00508191
739 1 0.6 0.1 -0.00536754 -2.47711 24.5066
740 1 0.616667 0.05 0.0602644 -2.83185 0.00508191
742 1 0.6 0 -0.00536754 -2.47711 24.5066
743 1 0.65 0.05 -0.00536754 -2.47711 24.5066
864 1 0.666667 0.1 0.0602644 -2.83185 0.00508191
867 1 0.666667 0 0.0602644 -2.83185 0.00508191
868 1 0.7 0 -0.00536754 -2.47711 24.5066
869 1 0.716667 0.05 0.0602644 -2.83185 0.00508191
895 1 0.7 0.1 -0.00536754 -2.47711 24.5066
896 1 0.75 0.05 -0.00536754 -2.47711 24.5066
995 1 0.766667 0 0.0602644 -2.83185 0.00508191
1018 1 0.766667 0.1 0.0602644 -2.83185 0.00508191
1019 1 0.8 0.1 -0.00536754 -2.47711 24.5066
1020 1 0.816667 0.05 0.0602644 -2.83185 0.00508191
1022 1 0.8 0 -0.00536754 -2.47711 24.5066
1023 1 0.85 0.05 -0.00536754 -2.47711 24.5066
1144 1 0.866667 0.1 0.0602644 -2.83185 0.00508191
1147 1 0.866667 0 0.0602644 -2.83185 0.00508191
1148 1 0.9 0 -0.00536754 -2.47711 24.5066
1149 1 0.916667 0.05 0.0602644 -2.83185 0.00508191
1175 1 0.9 0.1 -0.00536754 -2.47711 24.5066
1176 1 0.95 0.05 -0.00536754 -2.47711 24.5066
1275 1 0.966667 0 0.0602644 -2.83185 0.00508191
1298 1 0.966667 0.1 0.0602644 -2.83185 0.00508191
3 1 0.0166667 0.15 0.0602644 -2.83185 0.00508191
7 1 0.0166667 0.25 0.0602644 -2.83185 0.00508191
9 1 0 0.2 -0.00536754 -2.47711 24.5066
10 1 0.05 0.15 -0.00536754 -2.47711 24.5066
11 1 0.05 0.25 -0.00536754 -2.47711 24.5066
62 1 0.0666667 0.2 0.0602644 -2.83185 0.00508191
63 1 0.1 0.2 -0.00536754 -2.47711 24.5066
64 1 0.116667 0.15 0.0602644 -2.83185 0.00508191
65 1 0.116667 0.25 0.0602644 -2.83185 0.00508191
68 1 0.15 0.15 -0.00536754 -2.47711 24.5066
85 1 0.15 0.25 -0.00536754 -2.47711 24.5066
175 1 0.166667 0.2 0.0602644 -2.83185 0.00508191
181 1 0.216667 0.15 0.0602644 -2.83185 0.00508191
207 1 0.216667 0.25 0.0602644 -2.83185 0.00508191
209 1 0.2 0.2 -0.00536754 -2.47711 24.5066
210 1 0.25 0.15 -0.00536754 -2.47711 24.5066
211 1 0.25 0.25 -0.00536754 -2.47711 24.5066
331 1 0.266667 0.2 0.0602644 -2.83185 0.00508191
332 1 0.3 0.2 -0.00536754 -2.47711 24.5066
333 1 0.316667 0.15 0.0602644 -2.83185 0.00508191
334 1 0.316667 0.25 0.0602644 -2.83185 0.00508191
337 1 0.35 0.15 -0.00536754 -2.47711 24.5066
363 1 0.35 0.25 -0.00536754 -2.47711 24.5066
455 1 0.366667 0.2 0.0602644 -2.83185 0.00508191
461 1 0.416667 0.15 0.0602644 -2.83185 0.00508191
487 1 0.416667 0.25 0.0602644 -2.83185 0.00508191
489 1 0.4 0.2 -0.00536754 -2.47711 24.5066
490 1 0.45 0.15 -0.00536754 -2.47711 24.5066
491 1 0.45 0.25 -0.00536754 -2.47711 24.5066
611 1 0.466667 0.2 0.0602644 -2.83185 0.00508191
612 1 0.5 0.2 -0.00536754 -2.47711 24.5066
613 1 0.516667 0.15 0.0602644 -2.83185 0.00508191
614 1 0.516667 0.25 0.0602644 -2.83185 0.00508191
617 1 0.55 0.15 -0.00536754 -2.47711 24.5066
643 1 0.55 0.25 -0.00536754 -2.47711 24.5066
735 1 0.566667 0.2 0.0602644 -2.83185 0.00508191
741 1 0.616667 0.15 0.0602644 -2.83185 0.00508191
767 1 0.616667 0.25 0.0602644 -2.83185 0.00508191
769 1 0.6 0.2 -0.00536754 -2.47711 24.5066
770 1 0.65 0.15 -0.00536754 -2.47711 24.5066
771 1 0.65 0.25 -0.00536754 -2.47711 24.5066
891 1 0.666667 0.2 0.0602644 -2.83185 0.00508191
892 1 0.7 0.2 -0.00536754 -2.47711 24.5066
893 1 0.716667 0.15 0.0602644 -2.83185 0.00508191
894 1 0.716667 0.25 0.0602644 -2.83185 0.00508191
897 1 0.75 0.15 -0.00536754 -2.47711 24.5066
923 1 0.75 0.25 -0.00536754 -2.47711 24.5066
1015 1 0.766667 0.2 0.0602644 -2.83185 0.00508191
1021 1 0.816667 0.15 0.0602644 -2.83185 0.00508191
1047 1 0.816667 0.25 0.0602644 -2.83185 0.00508191
1049 1 0.8 0.2 -0.00536754 -2.47711 24.5066
1050 1 0.85 0.15 -0.00536754 -2.47711 24.5066
1051 1 0.85 0.25 -0.00536754 -2.47711 24.5066
1171 1 0.866667 0.2 0.0602644 -2.83185 0.00508191
1172 1 0.9 0.2 -0.00536754 -2.47711 24.5066
1173 1 0.916667 0.15 0.0602644 -2.83185 0.00508191
1174 1 0.916667 0.25 0.0602644 -2.83185 0.00508191
1177 1 0.95 0.15 -0.00536754 -2.47711 24.5066
1203 1 0.95 0.25 -0.00536754 -2.47711 24.5066
1295 1 0.966667 0.2 0.0602644 -2.83185 0.00508191
6 1 0 0.3 -0.00536754 -2.47711 24.5066
8 1 0.0166667 0.35 0.0602644 -2.83185 0.00508191
15 1 0 0.4 -0.00536754 -2.47711 24.5066
16 1 0.05 0.35 -0.00536754 -2.47711 24.5066
59 1 0.0666667 0.3 0.0602644 -2.83185 0.00508191
80 1 0.0666667 0.4 0.0602644 -2.83185 0.00508191
81 1 0.1 0.4 -0.00536754 -2.47711 24.5066
82 1 0.116667 0.35 0.0602644 -2.83185 0.00508191
84 1 0.1 0.3 -0.00536754 -2.47711 24.5066
86 1 0.15 0.35 -0.00536754 -2.47711 24.5066
202 1 0.166667 0.4 0.0602644 -2.83185 0.00508191
205 1 0.166667 0.3 0.0602644 -2.83185 0.00508191
206 1 0.2 0.3 -0.00536754 -2.47711 24.5066
208 1 0.216667 0.35 0.0602644 -2.83185 0.00508191
233 1 0.2 0.4 -0.00536754 -2.47711 24.5066
234 1 0.25 0.35 -0.00536754 -2.47711 24.5066
328 1 0.266667 0.3 0.0602644 -2.83185 0.00508191
358 1 0.266667 0.4 0.0602644 -2.83185 0.00508191
359 1 0.3 0.4 -0.00536754 -2.47711 24.5066
360 1 0.316667 0.35 0.0602644 -2.83185 0.00508191
362 1 0.3 0.3 -0.00536754 -2.47711 24.5066
364 1 0.35 0.35 -0.00536754 -2.47711 24.5066
482 1 0.366667 0.4 0.0602644 -2.83185 0.00508191
485 1 0.366667 0.3 0.0602644 -2.83185 0.00508191
486 1 0.4 0.3 -0.00536754 -2.47711 24.5066
488 1 0.416667 0.35 0.0602644 -2.83185 0.00508191
513 1 0.4 0.4 -0.00536754 -2.47711 24.5066
514 1 0.45 0.35 -0.00536754 -2.47711 24.5066
608 1 0.466667 0.3 0.0602644 -2.83185 0.00508191
638 1 0.466667 0.4 0.0602644 -2.83185 0.00508191
639 1 0.5 0.4 -0.00536754 -2.47711 24.5066
642 1 0.5 0.3 -0.00536754 -2.47711 24.5066
640 1 0.516667 0.35 0.0602644 -2.83185 0.00508191
644 1 0.55 0.35 -0.00536754 -2.47711 24.5066
762 1 0.566667 0.4 0.0602644 -2.83185 0.00508191
765 1 0.566667 0.3 0.0602644 -2.83185 0.00508191
766 1 0.6 0.3 -0.00536754 -2.47711 24.5066
768 1 0.616667 0.35 0.0602644 -2.83185 0.00508191
793 1 0.6 0.4 -0.00536754 -2.47711 24.5066
794 1 0.65 0.35 -0.00536754 -2.47711 24.5066
888 1 0.666667 0.3 0.0602644 -2.83185 0.00508191
918 1 0.666667 0.4 0.0602644 -2.83185 0.00508191
919 1 0.7 0.4 -0.00536754 -2.47711 24.5066
920 1 0.716667 0.35 0.0602644 -2.83185 0.00508191
922 1 0.7 0.3 -0.00536754 -2.47711 24.5066
924 1 0.75 0.35 -0.00536754 -2.47711 24.5066
1042 1 0.766667 0.4 0.0602644 -2.83185 0.00508191
1045 1 0.766667 0.3 0.0602644 -2.83185 0.00508191
1046 1 0.8 0.3 -0.00536754 -2.47711 24.5066
1048 1 0.816667 0.35 0.0602644 -2.83185 0.00508191
1073 1 0.8 0.4 -0.00536754 -2.47711 24.5066
1074 1 0.85 0.35 -0.00536754 -2.47711 24.5066
1168 1 0.866667 0.3 0.0602644 -2.83185 0.00508191
1198 1 0.866667 0.4 0.0602644 -2.83185 0.00508191
1199 1 0.9 0.4 -0.00536754 -2.47711 24.5066
1200 1 0.916667 0.35 0.0602644 -2.83185 0.00508191
1202 1 0.9 0.3 -0.00536754 -2.47711 24.5066
1204 1 0.95 0.35 -0.00536754 -2.47711 24.5066
1317 1 0.966667 0.4 0.0602644 -2.83185 0.00508191
1320 1 0.966667 0.3 0.0602644 -2.83185 0.00508191
12 1 0 0.5 -0.00536754 -2.47711 24.5066
13 1 0.0166667 0.45 0.0602644 -2.83185 0.00508191
14 1 0.0166667 0.55 0.0602644 -2.83185 0.00508191
17 1 0.05 0.45 -0.00536754 -2.47711 24.5066
22 1 0.05 0.55 -0.00536754 -2.47711 24.5066
77 1 0.0666667 0.5 0.0602644 -2.83185 0.00508191
83 1 0.116667 0.45 0.0602644 -2.83185 0.00508191
100 1 0.116667 0.55 0.0602644 -2.83185 0.00508191
102 1 0.1 0.5 -0.00536754 -2.47711 24.5066
103 1 0.15 0.45 -0.00536754 -2.47711 24.5066
104 1 0.15 0.55 -0.00536754 -2.47711 24.5066
229 1 0.166667 0.5 0.0602644 -2.83185 0.00508191
230 1 0.2 0.5 -0.00536754 -2.47711 24.5066
231 1 0.216667 0.45 0.0602644 -2.83185 0.00508191
232 1 0.216667 0.55 0.0602644 -2.83185 0.00508191
235 1 0.25 0.45 -0.00536754 -2.47711 24.5066
250 1 0.25 0.55 -0.00536754 -2.47711 24.5066
355 1 0.266667 0.5 0.0602644 -2.83185 0.00508191
361 1 0.316667 0.45 0.0602644 -2.83185 0.00508191
380 1 0.316667 0.55 0.0602644 -2.83185 0.00508191
382 1 0.3 0.5 -0.00536754 -2.47711 24.5066
383 1 0.35 0.45 -0.00536754 -2.47711 24.5066
384 1 0.35 0.55 -0.00536754 -2.47711 24.5066
509 1 0.366667 0.5 0.0602644 -2.83185 0.00508191
510 1 0.4 0.5 -0.00536754 -2.47711 24.5066
511 1 0.416667 0.45 0.0602644 -2.83185 0.00508191
512 1 0.416667 0.55 0.0602644 -2.83185 0.00508191
515 1 0.45 0.45 -0.00536754 -2.47711 24.5066
530 1 0.45 0.55 -0.00536754 -2.47711 24.5066
635 1 0.466667 0.5 0.0602644 -2.83185 0.00508191
662 1 0.5 0.5 -0.00536754 -2.47711 24.5066
641 1 0.516667 0.45 0.0602644 -2.83185 0.00508191
660 1 0.516667 0.55 0.0602644 -2.83185 0.00508191
663 1 0.55 0.45 -0.00536754 -2.47711 24.5066
664 1 0.55 0.55 -0.00536754 -2.47711 24.5066
789 1 0.566667 0.5 0.0602644 -2.83185 0.00508191
790 1 0.6 0.5 -0.00536754 -2.47711 24.5066
791 1 0.616667 0.45 0.0602644 -2.83185 0.00508191
792 1 0.616667 0.55 0.0602644 -2.83185 0.00508191
795 1 0.65 0.45 -0.00536754 -2.47711 24.5066
810 1 0.65 0.55 -0.00536754 -2.47711 24.5066
915 1 0.666667 0.5 0.0602644 -2.83185 0.00508191
921 1 0.716667 0.45 0.0602644 -2.83185 0.00508191
940 1 0.716667 0.55 0.0602644 -2.83185 0.00508191
942 1 0.7 0.5 -0.00536754 -2.47711 24.5066
943 1 0.75 0.45 -0.00536754 -2.47711 24.5066
944 1 0.75 0.55 -0.00536754 -2.47711 24.5066
1069 1 0.766667 0.5 0.0602644 -2.83185 0.00508191
1070 1 0.8 0.5 -0.00536754 -2.47711 24.5066
1071 1 0.816667 0.45 0.0602644 -2.83185 0.00508191
1072 1 0.816667 0.55 0.0602644 -2.83185 0.00508191
1075 1 0.85 0.45 -0.00536754 -2.47711 24.5066
1090 1 0.85 0.55 -0.00536754 -2.47711 24.5066
1195 1 0.866667 0.5 0.0602644 -2.83185 0.00508191
1201 1 0.916667 0.45 0.0602644 -2.83185 0.00508191
1220 1 0.916667 0.55 0.0602644 -2.83185 0.00508191
1222 1 0.9 0.5 -0.00536754 -2.47711 24.5066
1223 1 0.95 0.45 -0.00536754 -2.47711 24.5066
1224 1 0.95 0.55 -0.00536754 -2.47711 24.5066
1338 1 0.966667 0.5 0.0602644 -2.83185 0.00508191
18 1 0 0.7 -0.00536754 -2.47711 24.5066
19 1 0.0166667 0.65 0.0602644 -2.83185 0.00508191
21 1 0 0.6 -0.00536754 -2.47711 24.5066
23 1 0.05 0.65 -0.00536754 -2.47711 24.5066
95 1 0.0666667 0.7 0.0602644 -2.83185 0.00508191
98 1 0.0666667 0.6 0.0602644 -2.83185 0.00508191
99 1 0.1 0.6 -0.00536754 -2.47711 24.5066
101 1 0.116667 0.65 0.0602644 -2.83185 0.00508191
114 1 0.1 0.7 -0.00536754 -2.47711 24.5066
115 1 0.15 0.65 -0.00536754 -2.47711 24.5066
226 1 0.166667 0.6 0.0602644 -2.83185 0.00508191
245 1 0.166667 0.7 0.0602644 -2.83185 0.00508191
246 1 0.2 0.7 -0.00536754 -2.47711 24.5066
247 1 0.216667 0.65 0.0602644 -2.83185 0.00508191
249 1 0.2 0.6 -0.00536754 -2.47711 24.5066
251 1 0.25 0.65 -0.00536754 -2.47711 24.5066
375 1 0.266667 0.7 0.0602644 -2.83185 0.00508191
378 1 0.266667 0.6 0.0602644 -2.83185 0.00508191
379 1 0.3 0.6 -0.00536754 -2.47711 24.5066
381 1 0.316667 0.65 0.0602644 -2.83185 0.00508191
394 1 0.3 0.7 -0.00536754 -2.47711 24.5066
395 1 0.35 0.65 -0.00536754 -2.47711 24.5066
506 1 0.366667 0.6 0.0602644 -2.83185 0.00508191
525 1 0.366667 0.7 0.0602644 -2.83185 0.00508191
526 1 0.4 0.7 -0.00536754 -2.47711 24.5066
527 1 0.416667 0.65 0.0602644 -2.83185 0.00508191
529 1 0.4 0.6 -0.00536754 -2.47711 24.5066
531 1 0.45 0.65 -0.00536754 -2.47711 24.5066
655 1 0.466667 0.7 0.0602644 -2.83185 0.00508191
658 1 0.466667 0.6 0.0602644 -2.83185 0.00508191
659 1 0.5 0.6 -0.00536754 -2.47711 24.5066
674 1 0.5 0.7 -0.00536754 -2.47711 24.5066
661 1 0.516667 0.65 0.0602644 -2.83185 0.00508191
675 1 0.55 0.65 -0.00536754 -2.47711 24.5066
786 1 0.566667 0.6 0.0602644 -2.83185 0.00508191
805 1 0.566667 0.7 0.0602644 -2.83185 0.00508191
806 1 0.6 0.7 -0.00536754 -2.47711 24.5066
807 1 0.616667 0.65 0.0602644 -2.83185 0.00508191
809 1 0.6 0.6 -0.00536754 -2.47711 24.5066
811 1 0.65 0.65 -0.00536754 -2.47711 24.5066
935 1 0.666667 0.7 0.0602644 -2.83185 0.00508191
938 1 0.666667 0.6 0.0602644 -2.83185 0.00508191
939 1 0.7 0.6 -0.00536754 -2.47711 24.5066
941 1 0.716667 0.65 0.0602644 -2.83185 0.00508191
954 1 0.7 0.7 -0.00536754 -2.47711 24.5066
955 1 0.75 0.65 -0.00536754 -2.47711 24.5066
1066 1 0.766667 0.6 0.0602644 -2.83185 0.00508191
1085 1 0.766667 0.7 0.0602644 -2.83185 0.00508191
1086 1 0.8 0.7 -0.00536754 -2.47711 24.5066
1087 1 0.816667 0.65 0.0602644 -2.83185 0.00508191
1089 1 0.8 0.6 -0.00536754 -2.47711 24.5066
1091 1 0.85 0.65 -0.00536754 -2.47711 24.5066
1215 1 0.866667 0.7 0.0602644 -2.83185 0.00508191
1218 1 0.866667 0.6 0.0602644 -2.83185 0.00508191
1219 1 0.9 0.6 -0.00536754 -2.47711 24.5066
1221 1 0.916667 0.65 0.0602644 -2.83185 0.00508191
1234 1 0.9 0.7 -0.00536754 -2.47711 24.5066
1235 1 0.95 0.65 -0.00536754 -2.47711 24.5066
1335 1 0.966667 0.6 0.0602644 -2.83185 0.00508191
1348 1 0.966667 0.7 0.0602644 -2.83185 0.00508191
20 1 0.0166667 0.75 0.0602644 -2.83185 0.00508191
25 1 0.0166667 0.85 0.0602644 -2.83185 0.00508191
27 1 0 0.8 -0.00536754 -2.47711 24.5066
28 1 0.05 0.75 -0.00536754 -2.47711 24.5066
29 1 0.05 0.85 -0.00536754 -2.47711 24.5066
110 1 0.0666667 0.8 0.0602644 -2.83185 0.00508191
111 1 0.1 0.8 -0.00536754 -2.47711 24.5066
112 1 0.116667 0.75 0.0602644 -2.83185 0.00508191
113 1 0.116667 0.85 0.0602644 -2.83185 0.00508191
116 1 0.15 0.75 -0.00536754 -2.47711 24.5066
119 1 0.15 0.85 -0.00536754 -2.47711 24.5066
242 1 0.166667 0.8 0.0602644 -2.83185 0.00508191
248 1 0.216667 0.75 0.0602644 -2.83185 0.00508191
255 1 0.216667 0.85 0.0602644 -2.83185 0.00508191
257 1 0.2 0.8 -0.00536754 -2.47711 24.5066
258 1 0.25 0.75 -0.00536754 -2.47711 24.5066
259 1 0.25 0.85 -0.00536754 -2.47711 24.5066
390 1 0.266667 0.8 0.0602644 -2.83185 0.00508191
391 1 0.3 0.8 -0.00536754 -2.47711 24.5066
392 1 0.316667 0.75 0.0602644 -2.83185 0.00508191
393 1 0.316667 0.85 0.0602644 -2.83185 0.00508191
396 1 0.35 0.75 -0.00536754 -2.47711 24.5066
399 1 0.35 0.85 -0.00536754 -2.47711 24.5066
522 1 0.366667 0.8 0.0602644 -2.83185 0.00508191
528 1 0.416667 0.75 0.0602644 -2.83185 0.00508191
535 1 0.416667 0.85 0.0602644 -2.83185 0.00508191
537 1 0.4 0.8 -0.00536754 -2.47711 24.5066
538 1 0.45 0.75 -0.00536754 -2.47711 24.5066
539 1 0.45 0.85 -0.00536754 -2.47711 24.5066
670 1 0.466667 0.8 0.0602644 -2.83185 0.00508191
671 1 0.5 0.8 -0.00536754 -2.47711 24.5066
672 1 0.516667 0.75 0.0602644 -2.83185 0.00508191
673 1 0.516667 0.85 0.0602644 -2.83185 0.00508191
676 1 0.55 0.75 -0.00536754 -2.47711 24.5066
679 1 0.55 0.85 -0.00536754 -2.47711 24.5066
802 1 0.566667 0.8 0.0602644 -2.83185 0.00508191
808 1 0.616667 0.75 0.0602644 -2.83185 0.00508191
815 1 0.616667 0.85 0.0602644 -2.83185 0.00508191
817 1 0.6 0.8 -0.00536754 -2.47711 24.5066
818 1 0.65 0.75 -0.00536754 -2.47711 24.5066
819 1 0.65 0.85 -0.00536754 -2.47711 24.5066
950 1 0.666667 0.8 0.0602644 -2.83185 0.00508191
951 1 0.7 0.8 -0.00536754 -2.47711 24.5066
952 1 0.716667 0.75 0.0602644 -2.83185 0.00508191
953 1 0.716667 0.85 0.0602644 -2.83185 0.00508191
956 1 0.75 0.75 -0.00536754 -2.47711 24.5066
959 1 0.75 0.85 -0.00536754 -2.47711 24.5066
1082 1 0.766667 0.8 0.0602644 -2.83185 0.00508191
1088 1 0.816667 0.75 0.0602644 -2.83185 0.00508191
1095 1 0.816667 0.85 0.0602644 -2.83185 0.00508191
1097 1 0.8 0.8 -0.00536754 -2.47711 24.5066
1098 1 0.85 0.75 -0.00536754 -2.47711 24.5066
1099 1 0.85 0.85 -0.00536754 -2.47711 24.5066
1230 1 0.866667 0.8 0.0602644 -2.83185 0.00508191
1231 1 0.9 0.8 -0.00536754 -2.47711 24.5066
1232 1 0.916667 0.75 0.0602644 -2.83185 0.00508191
1233 1 0.916667 0.85 0.0602644 -2.83185 0.00508191
1236 1 0.95 0.75 -0.00536754 -2.47711 24.5066
1239 1 0.95 0.85 -0.00536754 -2.47711 24.5066
1345 1 0.966667 0.8 0.0602644 -2.83185 0.00508191
24 1 0 0.9 -0.00536754 -2.47711 24.5066
26 1 0.0166667 0.95 0.0602644 -2.83185 0.00508191
30 1 0.05 0.95 -0.00536754 -2.47711 24.5066
107 1 0.0666667 0.9 0.0602644 -2.83185 0.00508191
117 1 0.116667 0.95 0.0602644 -2.83185 0.00508191
118 1 0.1 0.9 -0.00536754 -2.47711 24.5066
120 1 0.15 0.95 -0.00536754 -2.47711 24.5066
253 1 0.166667 0.9 0.0602644 -2.83185 0.00508191
254 1 0.2 0.9 -0.00536754 -2.47711 24.5066
256 1 0.216667 0.95 0.0602644 -2.83185 0.00508191
260 1 0.25 0.95 -0.00536754 -2.47711 24.5066
387 1 0.266667 0.9 0.0602644 -2.83185 0.00508191
397 1 0.316667 0.95 0.0602644 -2.83185 0.00508191
398 1 0.3 0.9 -0.00536754 -2.47711 24.5066
400 1 0.35 0.95 -0.00536754 -2.47711 24.5066
533 1 0.366667 0.9 0.0602644 -2.83185 0.00508191
534 1 0.4 0.9 -0.00536754 -2.47711 24.5066
536 1 0.416667 0.95 0.0602644 -2.83185 0.00508191
540 1 0.45 0.95 -0.00536754 -2.47711 24.5066
667 1 0.466667 0.9 0.0602644 -2.83185 0.00508191
678 1 0.5 0.9 -0.00536754 -2.47711 24.5066
677 1 0.516667 0.95 0.0602644 -2.83185 0.00508191
680 1 0.55 0.95 -0.00536754 -2.47711 24.5066
813 1 0.566667 0.9 0.0602644 -2.83185 0.00508191
814 1 0.6 0.9 -0.00536754 -2.47711 24.5066
816 1 0.616667 0.95 0.0602644 -2.83185 0.00508191
820 1 0.65 0.95 -0.00536754 -2.47711 24.5066
947 1 0.666667 0.9 0.0602644 -2.83185 0.00508191
957 1 0.716667 0.95 0.0602644 -2.83185 0.00508191
958 1 0.7 0.9 -0.00536754 -2.47711 24.5066
960 1 0.75 0.95 -0.00536754 -2.47711 24.5066
1093 1 0.766667 0.9 0.0602644 -2.83185 0.00508191
1094 1 0.8 0.9 -0.00536754 -2.47711 24.5066
1096 1 0.816667 0.95 0.0602644 -2.83185 0.00508191
1100 1 0.85 0.95 -0.00536754 -2.47711 24.5066
1227 1 0.866667 0.9 0.0602644 -2.83185 0.00508191
1237 1 0.916667 0.95 0.0602644 -2.83185 0.00508191
1238 1 0.9 0.9 -0.00536754 -2.47711 24.5066
1240 1 0.95 0.95 -0.00536754 -2.47711 24.5066
1350 1 0.966667 0.9 0.0602644 -2.83185 0.00508191
31 1 0 0.1 0.19389 -2.85005 2.08187e-06
34 1 0 0 0.19389 -2.85005 2.08187e-06
35 1 0.0333333 0 0.127061 -2.85123 4.08238e-06
36 1 0.05 0.05 0.19389 -2.85005 2.08187e-06
44 1 0.0333333 0.1 0.127061 -2.85123 4.08238e-06
46 1 0.0833333 0.05 0.127061 -2.85123 4.08238e-06
135 1 0.1 0 0.19389 -2.85005 2.08187e-06
150 1 0.1 0.1 0.19389 -2.85005 2.08187e-06
151 1 0.133333 0.1 0.127061 -2.85123 4.08238e-06
152 1 0.15 0.05 0.19389 -2.85005 2.08187e-06
154 1 0.133333 0 0.127061 -2.85123 4.08238e-06
156 1 0.183333 0.05 0.127061 -2.85123 4.08238e-06
280 1 0.2 0.1 0.19389 -2.85005 2.08187e-06
283 1 0.2 0 0.19389 -2.85005 2.08187e-06
284 1 0.233333 0 0.127061 -2.85123 4.08238e-06
285 1 0.25 0.05 0.19389 -2.85005 2.08187e-06
303 1 0.233333 0.1 0.127061 -2.85123 4.08238e-06
305 1 0.283333 0.05 0.127061 -2.85123 4.08238e-06
415 1 0.3 0 0.19389 -2.85005 2.08187e-06
430 1 0.3 0.1 0.19389 -2.85005 2.08187e-06
431 1 0.333333 0.1 0.127061 -2.85123 4.08238e-06
434 1 0.333333 0 0.127061 -2.85123 4.08238e-06
432 1 0.35 0.05 0.19389 -2.85005 2.08187e-06
436 1 0.383333 0.05 0.127061 -2.85123 4.08238e-06
560 1 0.4 0.1 0.19389 -2.85005 2.08187e-06
563 1 0.4 0 0.19389 -2.85005 2.08187e-06
564 1 0.433333 0 0.127061 -2.85123 4.08238e-06
565 1 0.45 0.05 0.19389 -2.85005 2.08187e-06
583 1 0.433333 0.1 0.127061 -2.85123 4.08238e-06
585 1 0.483333 0.05 0.127061 -2.85123 4.08238e-06
695 1 0.5 0 0.19389 -2.85005 2.08187e-06
710 1 0.5 0.1 0.19389 -2.85005 2.08187e-06
711 1 0.533333 0.1 0.127061 -2.85123 4.08238e-06
712 1 0.55 0.05 0.19389 -2.85005 2.08187e-06
714 1 0.533333 0 0.127061 -2.85123 4.08238e-06
716 1 0.583333 0.05 0.127061 -2.85123 4.08238e-06
840 1 0.6 0.1 0.19389 -2.85005 2.08187e-06
843 1 0.6 0 0.19389 -2.85005 2.08187e-06
844 1 0.633333 0 0.127061 -2.85123 4.08238e-06
845 1 0.65 0.05 0.19389 -2.85005 2.08187e-06
863 1 0.633333 0.1 0.127061 -2.85123 4.08238e-06
865 1 0.683333 0.05 0.127061 -2.85123 4.08238e-06
975 1 0.7 0 0.19389 -2.85005 2.08187e-06
990 1 0.7 0.1 0.19389 -2.85005 2.08187e-06
991 1 0.733333 0.1 0.127061 -2.85123 4.08238e-06
992 1 0.75 0.05 0.19389 -2.85005 2.08187e-06
994 1 0.733333 0 0.127061 -2.85123 4.08238e-06
996 1 0.783333 0.05 0.127061 -2.85123 4.08238e-06
1120 1 0.8 0.1 0.19389 -2.85005 2.08187e-06
1123 1 0.8 0 0.19389 -2.85005 2.08187e-06
1124 1 0.833333 0 0.127061 -2.85123 4.08238e-06
1143 1 0.833333 0.1 0.127061 -2.85123 4.08238e-06
1125 1 0.85 0.05 0.19389 -2.85005 2.08187e-06
1145 1 0.883333 0.05 0.127061 -2.85123 4.08238e-06
1255 1 0.9 0 0.19389 -2.85005 2.08187e-06
1270 1 0.9 0.1 0.19389 -2.85005 2.08187e-06
1271 1 0.933333 0.1 0.127061 -2.85123 4.08238e-06
1272 1 0.95 0.05 0.19389 -2.85005 2.08187e-06
1274 1 0.933333 0 0.127061 -2.85123 4.08238e-06
1276 1 0.983333 0.05 0.127061 -2.85123 4.08238e-06
40 1 0 0.2 0.19389 -2.85005 2.08187e-06
41 1 0.0333333 0.2 0.127061 -2.85123 4.08238e-06
42 1 0.05 0.15 0.19389 -2.85005 2.08187e-06
43 1 0.05 0.25 0.19389 -2.85005 2.08187e-06
47 1 0.0833333 0.15 0.127061 -2.85123 4.08238e-06
60 1 0.0833333 0.25 0.127061 -2.85123 4.08238e-06
147 1 0.1 0.2 0.19389 -2.85005 2.08187e-06
153 1 0.15 0.15 0.19389 -2.85005 2.08187e-06
172 1 0.15 0.25 0.19389 -2.85005 2.08187e-06
174 1 0.133333 0.2 0.127061 -2.85123 4.08238e-06
176 1 0.183333 0.15 0.127061 -2.85123 4.08238e-06
177 1 0.183333 0.25 0.127061 -2.85123 4.08238e-06
299 1 0.2 0.2 0.19389 -2.85005 2.08187e-06
300 1 0.233333 0.2 0.127061 -2.85123 4.08238e-06
301 1 0.25 0.15 0.19389 -2.85005 2.08187e-06
302 1 0.25 0.25 0.19389 -2.85005 2.08187e-06
306 1 0.283333 0.15 0.127061 -2.85123 4.08238e-06
329 1 0.283333 0.25 0.127061 -2.85123 4.08238e-06
427 1 0.3 0.2 0.19389 -2.85005 2.08187e-06
454 1 0.333333 0.2 0.127061 -2.85123 4.08238e-06
433 1 0.35 0.15 0.19389 -2.85005 2.08187e-06
452 1 0.35 0.25 0.19389 -2.85005 2.08187e-06
456 1 0.383333 0.15 0.127061 -2.85123 4.08238e-06
457 1 0.383333 0.25 0.127061 -2.85123 4.08238e-06
579 1 0.4 0.2 0.19389 -2.85005 2.08187e-06
580 1 0.433333 0.2 0.127061 -2.85123 4.08238e-06
581 1 0.45 0.15 0.19389 -2.85005 2.08187e-06
582 1 0.45 0.25 0.19389 -2.85005 2.08187e-06
586 1 0.483333 0.15 0.127061 -2.85123 4.08238e-06
609 1 0.483333 0.25 0.127061 -2.85123 4.08238e-06
707 1 0.5 0.2 0.19389 -2.85005 2.08187e-06
713 1 0.55 0.15 0.19389 -2.85005 2.08187e-06
732 1 0.55 0.25 0.19389 -2.85005 2.08187e-06
734 1 0.533333 0.2 0.127061 -2.85123 4.08238e-06
736 1 0.583333 0.15 0.127061 -2.85123 4.08238e-06
737 1 0.583333 0.25 0.127061 -2.85123 4.08238e-06
859 1 0.6 0.2 0.19389 -2.85005 2.08187e-06
860 1 0.633333 0.2 0.127061 -2.85123 4.08238e-06
861 1 0.65 0.15 0.19389 -2.85005 2.08187e-06
862 1 0.65 0.25 0.19389 -2.85005 2.08187e-06
866 1 0.683333 0.15 0.127061 -2.85123 4.08238e-06
889 1 0.683333 0.25 0.127061 -2.85123 4.08238e-06
987 1 0.7 0.2 0.19389 -2.85005 2.08187e-06
993 1 0.75 0.15 0.19389 -2.85005 2.08187e-06
1012 1 0.75 0.25 0.19389 -2.85005 2.08187e-06
1014 1 0.733333 0.2 0.127061 -2.85123 4.08238e-06
1016 1 0.783333 0.15 0.127061 -2.85123 4.08238e-06
1017 1 0.783333 0.25 0.127061 -2.85123 4.08238e-06
1139 1 0.8 0.2 0.19389 -2.85005 2.08187e-06
1140 1 0.833333 0.2 0.127061 -2.85123 4.08238e-06
1141 1 0.85 0.15 0.19389 -2.85005 2.08187e-06
1142 1 0.85 0.25 0.19389 -2.85005 2.08187e-06
1146 1 0.883333 0.15 0.127061 -2.85123 4.08238e-06
1169 1 0.883333 0.25 0.127061 -2.85123 4.08238e-06
1267 1 0.9 0.2 0.19389 -2.85005 2.08187e-06
1273 1 0.95 0.15 0.19389 -2.85005 2.08187e-06
1292 1 0.95 0.25 0.19389 -2.85005 2.08187e-06
1294 1 0.933333 0.2 0.127061 -2.85123 4.08238e-06
1296 1 0.983333 0.15 0.127061 -2.85123 4.08238e-06
1297 1 0.983333 0.25 0.127061 -2.85123 4.08238e-06
37 1 0 0.3 0.19389 -2.85005 2.08187e-06
54 1 8.86546e-18 0.4 0.19389 -2.85005 2.08187e-06
55 1 0.0333333 0.4 0.127061 -2.85123 4.08238e-06
56 1 0.05 0.35 0.19389 -2.85005 2.08187e-06
58 1 0.0333333 0.3 0.127061 -2.85123 4.08238e-06
61 1 0.0833333 0.35 0.127061 -2.85123 4.08238e-06
167 1 0.1 0.4 0.19389 -2.85005 2.08187e-06
170 1 0.1 0.3 0.19389 -2.85005 2.08187e-06
171 1 0.133333 0.3 0.127061 -2.85123 4.08238e-06
173 1 0.15 0.35 0.19389 -2.85005 2.08187e-06
201 1 0.133333 0.4 0.127061 -2.85123 4.08238e-06
203 1 0.183333 0.35 0.127061 -2.85123 4.08238e-06
296 1 0.2 0.3 0.19389 -2.85005 2.08187e-06
323 1 0.2 0.4 0.19389 -2.85005 2.08187e-06
324 1 0.233333 0.4 0.127061 -2.85123 4.08238e-06
325 1 0.25 0.35 0.19389 -2.85005 2.08187e-06
327 1 0.233333 0.3 0.127061 -2.85123 4.08238e-06
330 1 0.283333 0.35 0.127061 -2.85123 4.08238e-06
447 1 0.3 0.4 0.19389 -2.85005 2.08187e-06
450 1 0.3 0.3 0.19389 -2.85005 2.08187e-06
451 1 0.333333 0.3 0.127061 -2.85123 4.08238e-06
481 1 0.333333 0.4 0.127061 -2.85123 4.08238e-06
453 1 0.35 0.35 0.19389 -2.85005 2.08187e-06
483 1 0.383333 0.35 0.127061 -2.85123 4.08238e-06
576 1 0.4 0.3 0.19389 -2.85005 2.08187e-06
603 1 0.4 0.4 0.19389 -2.85005 2.08187e-06
604 1 0.433333 0.4 0.127061 -2.85123 4.08238e-06
605 1 0.45 0.35 0.19389 -2.85005 2.08187e-06
607 1 0.433333 0.3 0.127061 -2.85123 4.08238e-06
610 1 0.483333 0.35 0.127061 -2.85123 4.08238e-06
727 1 0.5 0.4 0.19389 -2.85005 2.08187e-06
730 1 0.5 0.3 0.19389 -2.85005 2.08187e-06
731 1 0.533333 0.3 0.127061 -2.85123 4.08238e-06
733 1 0.55 0.35 0.19389 -2.85005 2.08187e-06
761 1 0.533333 0.4 0.127061 -2.85123 4.08238e-06
763 1 0.583333 0.35 0.127061 -2.85123 4.08238e-06
856 1 0.6 0.3 0.19389 -2.85005 2.08187e-06
883 1 0.6 0.4 0.19389 -2.85005 2.08187e-06
884 1 0.633333 0.4 0.127061 -2.85123 4.08238e-06
885 1 0.65 0.35 0.19389 -2.85005 2.08187e-06
887 1 0.633333 0.3 0.127061 -2.85123 4.08238e-06
890 1 0.683333 0.35 0.127061 -2.85123 4.08238e-06
1007 1 0.7 0.4 0.19389 -2.85005 2.08187e-06
1010 1 0.7 0.3 0.19389 -2.85005 2.08187e-06
1011 1 0.733333 0.3 0.127061 -2.85123 4.08238e-06
1013 1 0.75 0.35 0.19389 -2.85005 2.08187e-06
1041 1 0.733333 0.4 0.127061 -2.85123 4.08238e-06
1043 1 0.783333 0.35 0.127061 -2.85123 4.08238e-06
1136 1 0.8 0.3 0.19389 -2.85005 2.08187e-06
1163 1 0.8 0.4 0.19389 -2.85005 2.08187e-06
1164 1 0.833333 0.4 0.127061 -2.85123 4.08238e-06
1167 1 0.833333 0.3 0.127061 -2.85123 4.08238e-06
1165 1 0.85 0.35 0.19389 -2.85005 2.08187e-06
1170 1 0.883333 0.35 0.127061 -2.85123 4.08238e-06
1287 1 0.9 0.4 0.19389 -2.85005 2.08187e-06
1290 1 0.9 0.3 0.19389 -2.85005 2.08187e-06
1291 1 0.933333 0.3 0.127061 -2.85123 4.08238e-06
1293 1 0.95 0.35 0.19389 -2.85005 2.08187e-06
1316 1 0.933333 0.4 0.127061 -2.85123 4.08238e-06
1318 1 0.983333 0.35 0.127061 -2.85123 4.08238e-06
51 1 0 0.5 0.19389 -2.85005 2.08187e-06
57 1 0.05 0.45 0.19389 -2.85005 2.08187e-06
74 1 0.05 0.55 0.19389 -2.85005 2.08187e-06
76 1 0.0333333 0.5 0.127061 -2.85123 4.08238e-06
78 1 0.0833333 0.45 0.127061 -2.85123 4.08238e-06
79 1 0.0833333 0.55 0.127061 -2.85123 4.08238e-06
197 1 0.1 0.5 0.19389 -2.85005 2.08187e-06
198 1 0.133333 0.5 0.127061 -2.85123 4.08238e-06
199 1 0.15 0.45 0.19389 -2.85005 2.08187e-06
200 1 0.15 0.55 0.19389 -2.85005 2.08187e-06
204 1 0.183333 0.45 0.127061 -2.85123 4.08238e-06
227 1 0.183333 0.55 0.127061 -2.85123 4.08238e-06
320 1 0.2 0.5 0.19389 -2.85005 2.08187e-06
326 1 0.25 0.45 0.19389 -2.85005 2.08187e-06
352 1 0.25 0.55 0.19389 -2.85005 2.08187e-06
354 1 0.233333 0.5 0.127061 -2.85123 4.08238e-06
356 1 0.283333 0.45 0.127061 -2.85123 4.08238e-06
357 1 0.283333 0.55 0.127061 -2.85123 4.08238e-06
477 1 0.3 0.5 0.19389 -2.85005 2.08187e-06
478 1 0.333333 0.5 0.127061 -2.85123 4.08238e-06
479 1 0.35 0.45 0.19389 -2.85005 2.08187e-06
480 1 0.35 0.55 0.19389 -2.85005 2.08187e-06
484 1 0.383333 0.45 0.127061 -2.85123 4.08238e-06
507 1 0.383333 0.55 0.127061 -2.85123 4.08238e-06
600 1 0.4 0.5 0.19389 -2.85005 2.08187e-06
606 1 0.45 0.45 0.19389 -2.85005 2.08187e-06
632 1 0.45 0.55 0.19389 -2.85005 2.08187e-06
634 1 0.433333 0.5 0.127061 -2.85123 4.08238e-06
636 1 0.483333 0.45 0.127061 -2.85123 4.08238e-06
637 1 0.483333 0.55 0.127061 -2.85123 4.08238e-06
757 1 0.5 0.5 0.19389 -2.85005 2.08187e-06
758 1 0.533333 0.5 0.127061 -2.85123 4.08238e-06
759 1 0.55 0.45 0.19389 -2.85005 2.08187e-06
760 1 0.55 0.55 0.19389 -2.85005 2.08187e-06
764 1 0.583333 0.45 0.127061 -2.85123 4.08238e-06
787 1 0.583333 0.55 0.127061 -2.85123 4.08238e-06
880 1 0.6 0.5 0.19389 -2.85005 2.08187e-06
886 1 0.65 0.45 0.19389 -2.85005 2.08187e-06
912 1 0.65 0.55 0.19389 -2.85005 2.08187e-06
914 1 0.633333 0.5 0.127061 -2.85123 4.08238e-06
916 1 0.683333 0.45 0.127061 -2.85123 4.08238e-06
917 1 0.683333 0.55 0.127061 -2.85123 4.08238e-06
1037 1 0.7 0.5 0.19389 -2.85005 2.08187e-06
1038 1 0.733333 0.5 0.127061 -2.85123 4.08238e-06
1039 1 0.75 0.45 0.19389 -2.85005 2.08187e-06
1040 1 0.75 0.55 0.19389 -2.85005 2.08187e-06
1044 1 0.783333 0.45 0.127061 -2.85123 4.08238e-06
1067 1 0.783333 0.55 0.127061 -2.85123 4.08238e-06
1160 1 0.8 0.5 0.19389 -2.85005 2.08187e-06
1194 1 0.833333 0.5 0.127061 -2.85123 4.08238e-06
1166 1 0.85 0.45 0.19389 -2.85005 2.08187e-06
1192 1 0.85 0.55 0.19389 -2.85005 2.08187e-06
1196 1 0.883333 0.45 0.127061 -2.85123 4.08238e-06
1197 1 0.883333 0.55 0.127061 -2.85123 4.08238e-06
1312 1 0.9 0.5 0.19389 -2.85005 2.08187e-06
1313 1 0.933333 0.5 0.127061 -2.85123 4.08238e-06