ITEM: TIMESTEP
37
ITEM: NUMBER OF ATOMS
3200
ITEM: BOX BOUNDS pp pp ss
0.0000000000000000e+00 5.0092067021360698e+01
0.0000000000000000e+00 2.8920668379047399e+01
3.8451742731260487e-02 3.5381988531723906e+01
ITEM: ATOMS id type xs ys zs c_peratom c_csym
1 1 0 0.1 -1.47366e-06 -2.4793 24.3417
2 1 0.0166667 0.05 0.0652944 -2.82893 0.00118417
4 1 0 0 -1.47366e-06 -2.4793 24.3417
5 1 0.05 0.05 -1.47366e-06 -2.4793 24.3417
45 1 0.0666667 0.1 0.0652944 -2.82893 0.00118417
48 1 0.0666667 0 0.0652944 -2.82893 0.00118417
49 1 0.1 0 -1.47366e-06 -2.4793 24.3417
50 1 0.116667 0.05 0.0652944 -2.82893 0.00118417
66 1 0.1 0.1 -1.47366e-06 -2.4793 24.3417
67 1 0.15 0.05 -1.47366e-06 -2.4793 24.3417
155 1 0.166667 0 0.0652944 -2.82893 0.00118417
178 1 0.166667 0.1 0.0652944 -2.82893 0.00118417
179 1 0.2 0.1 -1.47366e-06 -2.4793 24.3417
180 1 0.216667 0.05 0.0652944 -2.82893 0.00118417
182 1 0.2 0 -1.47366e-06 -2.4793 24.3417
183 1 0.25 0.05 -1.47366e-06 -2.4793 24.3417
304 1 0.266667 0.1 0.0652944 -2.82893 0.00118417
307 1 0.266667 0 0.0652944 -2.82893 0.00118417
308 1 0.3 0 -1.47366e-06 -2.4793 24.3417
309 1 0.316667 0.05 0.0652944 -2.82893 0.00118417
335 1 0.3 0.1 -1.47366e-06 -2.4793 24.3417
336 1 0.35 0.05 -1.47366e-06 -2.4793 24.3417
435 1 0.366667 0 0.0652944 -2.82893 0.00118417
458 1 0.366667 0.1 0.0652944 -2.82893 0.00118417
459 1 0.4 0.1 -1.47366e-06 -2.4793 24.3417
460 1 0.416667 0.05 0.0652944 -2.82893 0.00118417
462 1 0.4 0 -1.47366e-06 -2.4793 24.3417
463 1 0.45 0.05 -1.47366e-06 -2.4793 24.3417
584 1 0.466667 0.1 0.0652944 -2.82893 0.00118417
587 1 0.466667 0 0.0652944 -2.82893 0.00118417
588 1 0.5 0 -1.47366e-06 -2.4793 24.3417
615 1 0.5 0.1 -1.47366e-06 -2.4793 24.3417
589 1 0.516667 0.05 0.0652944 -2.82893 0.00118417
616 1 0.55 0.05 -1.47366e-06 -2.4793 24.3417
715 1 0.566667 0 0.0652944 -2.82893 0.00118417
738 1 0.566667 0.1 0.0652944 -2.82893 0.00118417
739 1 0.6 0.1 -1.47366e-06 -2.4793 24.3417
740 1 0.616667 0.05 0.0652944 -2.82893 0.00118417
742 1 0.6 0 -1.47366e-06 -2.4793 24.3417
743 1 0.65 0.05 -1.47366e-06 -2.4793 24.3417
864 1 0.666667 0.1 0.0652944 -2.82893 0.00118417
867 1 0.666667 0 0.0652944 -2.82893 0.00118417
868 1 0.7 0 -1.47366e-06 -2.4793 24.3417
869 1 0.716667 0.05 0.0652944 -2.82893 0.00118417
895 1 0.7 0.1 -1.47366e-06 -2.4793 24.3417
896 1 0.75 0.05 -1.47366e-06 -2.4793 24.3417
995 1 0.766667 0 0.0652944 -2.82893 0.00118417
1018 1 0.766667 0.1 0.0652944 -2.82893 0.00118417
1019 1 0.8 0.1 -1.47366e-06 -2.4793 24.3417
1020 1 0.816667 0.05 0.0652944 -2.82893 0.00118417
1022 1 0.8 0 -1.47366e-06 -2.4793 24.3417
1023 1 0.85 0.05 -1.47366e-06 -2.4793 24.3417
1144 1 0.866667 0.1 0.0652944 -2.82893 0.00118417
1147 1 0.866667 0 0.0652944 -2.82893 0.00118417
1148 1 0.9 0 -1.47366e-06 -2.4793 24.3417
1149 1 0.916667 0.05 0.0652944 -2.82893 0.00118417
1175 1 0.9 0.1 -1.47366e-06 -2.4793 24.3417
1176 1 0.95 0.05 -1.47366e-06 -2.4793 24.3417
1275 1 0.966667 0 0.0652944 -2.82893 0.00118417
1298 1 0.966667 0.1 0.0652944 -2.82893 0.00118417
3 1 0.0166667 0.15 0.0652944 -2.82893 0.00118417
7 1 0.0166667 0.25 0.0652944 -2.82893 0.00118417
9 1 0 0.2 -1.47366e-06 -2.4793 24.3417
10 1 0.05 0.15 -1.47366e-06 -2.4793 24.3417
11 1 0.05 0.25 -1.47366e-06 -2.4793 24.3417
62 1 0.0666667 0.2 0.0652944 -2.82893 0.00118417
63 1 0.1 0.2 -1.47366e-06 -2.4793 24.3417
64 1 0.116667 0.15 0.0652944 -2.82893 0.00118417
65 1 0.116667 0.25 0.0652944 -2.82893 0.00118417
68 1 0.15 0.15 -1.47366e-06 -2.4793 24.3417
85 1 0.15 0.25 -1.47366e-06 -2.4793 24.3417
175 1 0.166667 0.2 0.0652944 -2.82893 0.00118417
181 1 0.216667 0.15 0.0652944 -2.82893 0.00118417
207 1 0.216667 0.25 0.0652944 -2.82893 0.00118417
209 1 0.2 0.2 -1.47366e-06 -2.4793 24.3417
210 1 0.25 0.15 -1.47366e-06 -2.4793 24.3417
211 1 0.25 0.25 -1.47366e-06 -2.4793 24.3417
331 1 0.266667 0.2 0.0652944 -2.82893 0.00118417
332 1 0.3 0.2 -1.47366e-06 -2.4793 24.3417
333 1 0.316667 0.15 0.0652944 -2.82893 0.00118417
334 1 0.316667 0.25 0.0652944 -2.82893 0.00118417
337 1 0.35 0.15 -1.47366e-06 -2.4793 24.3417
363 1 0.35 0.25 -1.47366e-06 -2.4793 24.3417
455 1 0.366667 0.2 0.0652944 -2.82893 0.00118417
461 1 0.416667 0.15 0.0652944 -2.82893 0.00118417
487 1 0.416667 0.25 0.0652944 -2.82893 0.00118417
489 1 0.4 0.2 -1.47366e-06 -2.4793 24.3417
490 1 0.45 0.15 -1.47366e-06 -2.4793 24.3417
491 1 0.45 0.25 -1.47366e-06 -2.4793 24.3417
611 1 0.466667 0.2 0.0652944 -2.82893 0.00118417
612 1 0.5 0.2 -1.47366e-06 -2.4793 24.3417
613 1 0.516667 0.15 0.0652944 -2.82893 0.00118417
614 1 0.516667 0.25 0.0652944 -2.82893 0.00118417
617 1 0.55 0.15 -1.47366e-06 -2.4793 24.3417
643 1 0.55 0.25 -1.47366e-06 -2.4793 24.3417
735 1 0.566667 0.2 0.0652944 -2.82893 0.00118417
741 1 0.616667 0.15 0.0652944 -2.82893 0.00118417
767 1 0.616667 0.25 0.0652944 -2.82893 0.00118417
769 1 0.6 0.2 -1.47366e-06 -2.4793 24.3417
770 1 0.65 0.15 -1.47366e-06 -2.4793 24.3417
771 1 0.65 0.25 -1.47366e-06 -2.4793 24.3417
891 1 0.666667 0.2 0.0652944 -2.82893 0.00118417
892 1 0.7 0.2 -1.47366e-06 -2.4793 24.3417
893 1 0.716667 0.15 0.0652944 -2.82893 0.00118417
894 1 0.716667 0.25 0.0652944 -2.82893 0.00118417
897 1 0.75 0.15 -1.47366e-06 -2.4793 24.3417
923 1 0.75 0.25 -1.47366e-06 -2.4793 24.3417
1015 1 0.766667 0.2 0.0652944 -2.82893 0.00118417
1021 1 0.816667 0.15 0.0652944 -2.82893 0.00118417
1047 1 0.816667 0.25 0.0652944 -2.82893 0.00118417
1049 1 0.8 0.2 -1.47366e-06 -2.4793 24.3417
1050 1 0.85 0.15 -1.47366e-06 -2.4793 24.3417
1051 1 0.85 0.25 -1.47366e-06 -2.4793 24.3417
1171 1 0.866667 0.2 0.0652944 -2.82893 0.00118417
1172 1 0.9 0.2 -1.47366e-06 -2.4793 24.3417
1173 1 0.916667 0.15 0.0652944 -2.82893 0.00118417
1174 1 0.916667 0.25 0.0652944 -2.82893 0.00118417
1177 1 0.95 0.15 -1.47366e-06 -2.4793 24.3417
1203 1 0.95 0.25 -1.47366e-06 -2.4793 24.3417
1295 1 0.966667 0.2 0.0652944 -2.82893 0.00118417
6 1 0 0.3 -1.47366e-06 -2.4793 24.3417
8 1 0.0166667 0.35 0.0652944 -2.82893 0.00118417
15 1 0 0.4 -1.47366e-06 -2.4793 24.3417
16 1 0.05 0.35 -1.47366e-06 -2.4793 24.3417
59 1 0.0666667 0.3 0.0652944 -2.82893 0.00118417
80 1 0.0666667 0.4 0.0652944 -2.82893 0.00118417
81 1 0.1 0.4 -1.47366e-06 -2.4793 24.3417
82 1 0.116667 0.35 0.0652944 -2.82893 0.00118417
84 1 0.1 0.3 -1.47366e-06 -2.4793 24.3417
86 1 0.15 0.35 -1.47366e-06 -2.4793 24.3417
202 1 0.166667 0.4 0.0652944 -2.82893 0.00118417
205 1 0.166667 0.3 0.0652944 -2.82893 0.00118417
206 1 0.2 0.3 -1.47366e-06 -2.4793 24.3417
208 1 0.216667 0.35 0.0652944 -2.82893 0.00118417
233 1 0.2 0.4 -1.47366e-06 -2.4793 24.3417
234 1 0.25 0.35 -1.47366e-06 -2.4793 24.3417
328 1 0.266667 0.3 0.0652944 -2.82893 0.00118417
358 1 0.266667 0.4 0.0652944 -2.82893 0.00118417
359 1 0.3 0.4 -1.47366e-06 -2.4793 24.3417
360 1 0.316667 0.35 0.0652944 -2.82893 0.00118417
362 1 0.3 0.3 -1.47366e-06 -2.4793 24.3417
364 1 0.35 0.35 -1.47366e-06 -2.4793 24.3417
482 1 0.366667 0.4 0.0652944 -2.82893 0.00118417
485 1 0.366667 0.3 0.0652944 -2.82893 0.00118417
486 1 0.4 0.3 -1.47366e-06 -2.4793 24.3417
488 1 0.416667 0.35 0.0652944 -2.82893 0.00118417
513 1 0.4 0.4 -1.47366e-06 -2.4793 24.3417
514 1 0.45 0.35 -1.47366e-06 -2.4793 24.3417
608 1 0.466667 0.3 0.0652944 -2.82893 0.00118417
638 1 0.466667 0.4 0.0652944 -2.82893 0.00118417
639 1 0.5 0.4 -1.47366e-06 -2.4793 24.3417
642 1 0.5 0.3 -1.47366e-06 -2.4793 24.3417
640 1 0.516667 0.35 0.0652944 -2.82893 0.00118417
644 1 0.55 0.35 -1.47366e-06 -2.4793 24.3417
762 1 0.566667 0.4 0.0652944 -2.82893 0.00118417
765 1 0.566667 0.3 0.0652944 -2.82893 0.00118417
766 1 0.6 0.3 -1.47366e-06 -2.4793 24.3417
768 1 0.616667 0.35 0.0652944 -2.82893 0.00118417
793 1 0.6 0.4 -1.47366e-06 -2.4793 24.3417
794 1 0.65 0.35 -1.47366e-06 -2.4793 24.3417
888 1 0.666667 0.3 0.0652944 -2.82893 0.00118417
918 1 0.666667 0.4 0.0652944 -2.82893 0.00118417
919 1 0.7 0.4 -1.47366e-06 -2.4793 24.3417
920 1 0.716667 0.35 0.0652944 -2.82893 0.00118417
922 1 0.7 0.3 -1.47366e-06 -2.4793 24.3417
924 1 0.75 0.35 -1.47366e-06 -2.4793 24.3417
1042 1 0.766667 0.4 0.0652944 -2.82893 0.00118417
1045 1 0.766667 0.3 0.0652944 -2.82893 0.00118417
1046 1 0.8 0.3 -1.47366e-06 -2.4793 24.3417
1048 1 0.816667 0.35 0.0652944 -2.82893 0.00118417
1073 1 0.8 0.4 -1.47366e-06 -2.4793 24.3417
1074 1 0.85 0.35 -1.47366e-06 -2.4793 24.3417
1168 1 0.866667 0.3 0.0652944 -2.82893 0.00118417
1198 1 0.866667 0.4 0.0652944 -2.82893 0.00118417
1199 1 0.9 0.4 -1.47366e-06 -2.4793 24.3417
1200 1 0.916667 0.35 0.0652944 -2.82893 0.00118417
1202 1 0.9 0.3 -1.47366e-06 -2.4793 24.3417
1204 1 0.95 0.35 -1.47366e-06 -2.4793 24.3417
1317 1 0.966667 0.4 0.0652944 -2.82893 0.00118417
1320 1 0.966667 0.3 0.0652944 -2.82893 0.00118417
12 1 0 0.5 -1.47366e-06 -2.4793 24.3417
13 1 0.0166667 0.45 0.0652944 -2.82893 0.00118417
14 1 0.0166667 0.55 0.0652944 -2.82893 0.00118417
17 1 0.05 0.45 -1.47366e-06 -2.4793 24.3417
22 1 0.05 0.55 -1.47366e-06 -2.4793 24.3417
77 1 0.0666667 0.5 0.0652944 -2.82893 0.00118417
83 1 0.116667 0.45 0.0652944 -2.82893 0.00118417
100 1 0.116667 0.55 0.0652944 -2.82893 0.00118417
102 1 0.1 0.5 -1.47366e-06 -2.4793 24.3417
103 1 0.15 0.45 -1.47366e-06 -2.4793 24.3417
104 1 0.15 0.55 -1.47366e-06 -2.4793 24.3417
229 1 0.166667 0.5 0.0652944 -2.82893 0.00118417
230 1 0.2 0.5 -1.47366e-06 -2.4793 24.3417
231 1 0.216667 0.45 0.0652944 -2.82893 0.00118417
232 1 0.216667 0.55 0.0652944 -2.82893 0.00118417
235 1 0.25 0.45 -1.47366e-06 -2.4793 24.3417
250 1 0.25 0.55 -1.47366e-06 -2.4793 24.3417
355 1 0.266667 0.5 0.0652944 -2.82893 0.00118417
361 1 0.316667 0.45 0.0652944 -2.82893 0.00118417
380 1 0.316667 0.55 0.0652944 -2.82893 0.00118417
382 1 0.3 0.5 -1.47366e-06 -2.4793 24.3417
383 1 0.35 0.45 -1.47366e-06 -2.4793 24.3417
384 1 0.35 0.55 -1.47366e-06 -2.4793 24.3417
509 1 0.366667 0.5 0.0652944 -2.82893 0.00118417
510 1 0.4 0.5 -1.47366e-06 -2.4793 24.3417
511 1 0.416667 0.45 0.0652944 -2.82893 0.00118417
512 1 0.416667 0.55 0.0652944 -2.82893 0.00118417
515 1 0.45 0.45 -1.47366e-06 -2.4793 24.3417
530 1 0.45 0.55 -1.47366e-06 -2.4793 24.3417
635 1 0.466667 0.5 0.0652944 -2.82893 0.00118417
662 1 0.5 0.5 -1.47366e-06 -2.4793 24.3417
641 1 0.516667 0.45 0.0652944 -2.82893 0.00118417
660 1 0.516667 0.55 0.0652944 -2.82893 0.00118417
663 1 0.55 0.45 -1.47366e-06 -2.4793 24.3417
664 1 0.55 0.55 -1.47366e-06 -2.4793 24.3417
789 1 0.566667 0.5 0.0652944 -2.82893 0.00118417
790 1 0.6 0.5 -1.47366e-06 -2.4793 24.3417
791 1 0.616667 0.45 0.0652944 -2.82893 0.00118417
792 1 0.616667 0.55 0.0652944 -2.82893 0.00118417
795 1 0.65 0.45 -1.47366e-06 -2.4793 24.3417
810 1 0.65 0.55 -1.47366e-06 -2.4793 24.3417
915 1 0.666667 0.5 0.0652944 -2.82893 0.00118417
921 1 0.716667 0.45 0.0652944 -2.82893 0.00118417
940 1 0.716667 0.55 0.0652944 -2.82893 0.00118417
942 1 0.7 0.5 -1.47366e-06 -2.4793 24.3417
943 1 0.75 0.45 -1.47366e-06 -2.4793 24.3417
944 1 0.75 0.55 -1.47366e-06 -2.4793 24.3417
1069 1 0.766667 0.5 0.0652944 -2.82893 0.00118417
1070 1 0.8 0.5 -1.47366e-06 -2.4793 24.3417
1071 1 0.816667 0.45 0.0652944 -2.82893 0.00118417
1072 1 0.816667 0.55 0.0652944 -2.82893 0.00118417
1075 1 0.85 0.45 -1.47366e-06 -2.4793 24.3417
1090 1 0.85 0.55 -1.47366e-06 -2.4793 24.3417
1195 1 0.866667 0.5 0.0652944 -2.82893 0.00118417
1201 1 0.916667 0.45 0.0652944 -2.82893 0.00118417
1220 1 0.916667 0.55 0.0652944 -2.82893 0.00118417
1222 1 0.9 0.5 -1.47366e-06 -2.4793 24.3417
1223 1 0.95 0.45 -1.47366e-06 -2.4793 24.3417
1224 1 0.95 0.55 -1.47366e-06 -2.4793 24.3417
1338 1 0.966667 0.5 0.0652944 -2.82893 0.00118417
18 1 0 0.7 -1.47366e-06 -2.4793 24.3417
19 1 0.0166667 0.65 0.0652944 -2.82893 0.00118417
21 1 0 0.6 -1.47366e-06 -2.4793 24.3417
23 1 0.05 0.65 -1.47366e-06 -2.4793 24.3417
95 1 0.0666667 0.7 0.0652944 -2.82893 0.00118417
98 1 0.0666667 0.6 0.0652944 -2.82893 0.00118417
99 1 0.1 0.6 -1.47366e-06 -2.4793 24.3417
101 1 0.116667 0.65 0.0652944 -2.82893 0.00118417
114 1 0.1 0.7 -1.47366e-06 -2.4793 24.3417
115 1 0.15 0.65 -1.47366e-06 -2.4793 24.3417
226 1 0.166667 0.6 0.0652944 -2.82893 0.00118417
245 1 0.166667 0.7 0.0652944 -2.82893 0.00118417
246 1 0.2 0.7 -1.47366e-06 -2.4793 24.3417
247 1 0.216667 0.65 0.0652944 -2.82893 0.00118417
249 1 0.2 0.6 -1.47366e-06 -2.4793 24.3417
251 1 0.25 0.65 -1.47366e-06 -2.4793 24.3417
375 1 0.266667 0.7 0.0652944 -2.82893 0.00118417
378 1 0.266667 0.6 0.0652944 -2.82893 0.00118417
379 1 0.3 0.6 -1.47366e-06 -2.4793 24.3417
381 1 0.316667 0.65 0.0652944 -2.82893 0.00118417
394 1 0.3 0.7 -1.47366e-06 -2.4793 24.3417
395 1 0.35 0.65 -1.47366e-06 -2.4793 24.3417
506 1 0.366667 0.6 0.0652944 -2.82893 0.00118417
525 1 0.366667 0.7 0.0652944 -2.82893 0.00118417
526 1 0.4 0.7 -1.47366e-06 -2.4793 24.3417
527 1 0.416667 0.65 0.0652944 -2.82893 0.00118417
529 1 0.4 0.6 -1.47366e-06 -2.4793 24.3417
531 1 0.45 0.65 -1.47366e-06 -2.4793 24.3417
655 1 0.466667 0.7 0.0652944 -2.82893 0.00118417
658 1 0.466667 0.6 0.0652944 -2.82893 0.00118417
659 1 0.5 0.6 -1.47366e-06 -2.4793 24.3417
674 1 0.5 0.7 -1.47366e-06 -2.4793 24.3417
661 1 0.516667 0.65 0.0652944 -2.82893 0.00118417
675 1 0.55 0.65 -1.47366e-06 -2.4793 24.3417
786 1 0.566667 0.6 0.0652944 -2.82893 0.00118417
805 1 0.566667 0.7 0.0652944 -2.82893 0.00118417
806 1 0.6 0.7 -1.47366e-06 -2.4793 24.3417
807 1 0.616667 0.65 0.0652944 -2.82893 0.00118417
809 1 0.6 0.6 -1.47366e-06 -2.4793 24.3417
811 1 0.65 0.65 -1.47366e-06 -2.4793 24.3417
935 1 0.666667 0.7 0.0652944 -2.82893 0.00118417
938 1 0.666667 0.6 0.0652944 -2.82893 0.00118417
939 1 0.7 0.6 -1.47366e-06 -2.4793 24.3417
941 1 0.716667 0.65 0.0652944 -2.82893 0.00118417
954 1 0.7 0.7 -1.47366e-06 -2.4793 24.3417
955 1 0.75 0.65 -1.47366e-06 -2.4793 24.3417
1066 1 0.766667 0.6 0.0652944 -2.82893 0.00118417
1085 1 0.766667 0.7 0.0652944 -2.82893 0.00118417
1086 1 0.8 0.7 -1.47366e-06 -2.4793 24.3417
1087 1 0.816667 0.65 0.0652944 -2.82893 0.00118417
1089 1 0.8 0.6 -1.47366e-06 -2.4793 24.3417
1091 1 0.85 0.65 -1.47366e-06 -2.4793 24.3417
1215 1 0.866667 0.7 0.0652944 -2.82893 0.00118417
1218 1 0.866667 0.6 0.0652944 -2.82893 0.00118417
1219 1 0.9 0.6 -1.47366e-06 -2.4793 24.3417
1221 1 0.916667 0.65 0.0652944 -2.82893 0.00118417
1234 1 0.9 0.7 -1.47366e-06 -2.4793 24.3417
1235 1 0.95 0.65 -1.47366e-06 -2.4793 24.3417
1335 1 0.966667 0.6 0.0652944 -2.82893 0.00118417
1348 1 0.966667 0.7 0.0652944 -2.82893 0.00118417
20 1 0.0166667 0.75 0.0652944 -2.82893 0.00118417
25 1 0.0166667 0.85 0.0652944 -2.82893 0.00118417
27 1 0 0.8 -1.47366e-06 -2.4793 24.3417
28 1 0.05 0.75 -1.47366e-06 -2.4793 24.3417
29 1 0.05 0.85 -1.47366e-06 -2.4793 24.3417
110 1 0.0666667 0.8 0.0652944 -2.82893 0.00118417
111 1 0.1 0.8 -1.47366e-06 -2.4793 24.3417
112 1 0.116667 0.75 0.0652944 -2.82893 0.00118417
113 1 0.116667 0.85 0.0652944 -2.82893 0.00118417
116 1 0.15 0.75 -1.47366e-06 -2.4793 24.3417
119 1 0.15 0.85 -1.47366e-06 -2.4793 24.3417
242 1 0.166667 0.8 0.0652944 -2.82893 0.00118417
248 1 0.216667 0.75 0.0652944 -2.82893 0.00118417
255 1 0.216667 0.85 0.0652944 -2.82893 0.00118417
257 1 0.2 0.8 -1.47366e-06 -2.4793 24.3417
258 1 0.25 0.75 -1.47366e-06 -2.4793 24.3417
259 1 0.25 0.85 -1.47366e-06 -2.4793 24.3417
390 1 0.266667 0.8 0.0652944 -2.82893 0.00118417
391 1 0.3 0.8 -1.47366e-06 -2.4793 24.3417
392 1 0.316667 0.75 0.0652944 -2.82893 0.00118417
393 1 0.316667 0.85 0.0652944 -2.82893 0.00118417
396 1 0.35 0.75 -1.47366e-06 -2.4793 24.3417
399 1 0.35 0.85 -1.47366e-06 -2.4793 24.3417
522 1 0.366667 0.8 0.0652944 -2.82893 0.00118417
528 1 0.416667 0.75 0.0652944 -2.82893 0.00118417
535 1 0.416667 0.85 0.0652944 -2.82893 0.00118417
537 1 0.4 0.8 -1.47366e-06 -2.4793 24.3417
538 1 0.45 0.75 -1.47366e-06 -2.4793 24.3417
539 1 0.45 0.85 -1.47366e-06 -2.4793 24.3417
670 1 0.466667 0.8 0.0652944 -2.82893 0.00118417
671 1 0.5 0.8 -1.47366e-06 -2.4793 24.3417
672 1 0.516667 0.75 0.0652944 -2.82893 0.00118417
673 1 0.516667 0.85 0.0652944 -2.82893 0.00118417
676 1 0.55 0.75 -1.47366e-06 -2.4793 24.3417
679 1 0.55 0.85 -1.47366e-06 -2.4793 24.3417
802 1 0.566667 0.8 0.0652944 -2.82893 0.00118417
808 1 0.616667 0.75 0.0652944 -2.82893 0.00118417
815 1 0.616667 0.85 0.0652944 -2.82893 0.00118417
817 1 0.6 0.8 -1.47366e-06 -2.4793 24.3417
818 1 0.65 0.75 -1.47366e-06 -2.4793 24.3417
819 1 0.65 0.85 -1.47366e-06 -2.4793 24.3417
950 1 0.666667 0.8 0.0652944 -2.82893 0.00118417
951 1 0.7 0.8 -1.47366e-06 -2.4793 24.3417
952 1 0.716667 0.75 0.0652944 -2.82893 0.00118417
953 1 0.716667 0.85 0.0652944 -2.82893 0.00118417
956 1 0.75 0.75 -1.47366e-06 -2.4793 24.3417
959 1 0.75 0.85 -1.47366e-06 -2.4793 24.3417
1082 1 0.766667 0.8 0.0652944 -2.82893 0.00118417
1088 1 0.816667 0.75 0.0652944 -2.82893 0.00118417
1095 1 0.816667 0.85 0.0652944 -2.82893 0.00118417
1097 1 0.8 0.8 -1.47366e-06 -2.4793 24.3417
1098 1 0.85 0.75 -1.47366e-06 -2.4793 24.3417
1099 1 0.85 0.85 -1.47366e-06 -2.4793 24.3417
1230 1 0.866667 0.8 0.0652944 -2.82893 0.00118417
1231 1 0.9 0.8 -1.47366e-06 -2.4793 24.3417
1232 1 0.916667 0.75 0.0652944 -2.82893 0.00118417
1233 1 0.916667 0.85 0.0652944 -2.82893 0.00118417
1236 1 0.95 0.75 -1.47366e-06 -2.4793 24.3417
1239 1 0.95 0.85 -1.47366e-06 -2.4793 24.3417
1345 1 0.966667 0.8 0.0652944 -2.82893 0.00118417
24 1 0 0.9 -1.47366e-06 -2.4793 24.3417
26 1 0.0166667 0.95 0.0652944 -2.82893 0.00118417
30 1 0.05 0.95 -1.47366e-06 -2.4793 24.3417
107 1 0.0666667 0.9 0.0652944 -2.82893 0.00118417
117 1 0.116667 0.95 0.0652944 -2.82893 0.00118417
118 1 0.1 0.9 -1.47366e-06 -2.4793 24.3417
120 1 0.15 0.95 -1.47366e-06 -2.4793 24.3417
253 1 0.166667 0.9 0.0652944 -2.82893 0.00118417
254 1 0.2 0.9 -1.47366e-06 -2.4793 24.3417
256 1 0.216667 0.95 0.0652944 -2.82893 0.00118417
260 1 0.25 0.95 -1.47366e-06 -2.4793 24.3417
387 1 0.266667 0.9 0.0652944 -2.82893 0.00118417
397 1 0.316667 0.95 0.0652944 -2.82893 0.00118417
398 1 0.3 0.9 -1.47366e-06 -2.4793 24.3417
400 1 0.35 0.95 -1.47366e-06 -2.4793 24.3417
533 1 0.366667 0.9 0.0652944 -2.82893 0.00118417
534 1 0.4 0.9 -1.47366e-06 -2.4793 24.3417
536 1 0.416667 0.95 0.0652944 -2.82893 0.00118417
540 1 0.45 0.95 -1.47366e-06 -2.4793 24.3417
667 1 0.466667 0.9 0.0652944 -2.82893 0.00118417
678 1 0.5 0.9 -1.47366e-06 -2.4793 24.3417
677 1 0.516667 0.95 0.0652944 -2.82893 0.00118417
680 1 0.55 0.95 -1.47366e-06 -2.4793 24.3417
813 1 0.566667 0.9 0.0652944 -2.82893 0.00118417
814 1 0.6 0.9 -1.47366e-06 -2.4793 24.3417
816 1 0.616667 0.95 0.0652944 -2.82893 0.00118417
820 1 0.65 0.95 -1.47366e-06 -2.4793 24.3417
947 1 0.666667 0.9 0.0652944 -2.82893 0.00118417
957 1 0.716667 0.95 0.0652944 -2.82893 0.00118417
958 1 0.7 0.9 -1.47366e-06 -2.4793 24.3417
960 1 0.75 0.95 -1.47366e-06 -2.4793 24.3417
1093 1 0.766667 0.9 0.0652944 -2.82893 0.00118417
1094 1 0.8 0.9 -1.47366e-06 -2.4793 24.3417
1096 1 0.816667 0.95 0.0652944 -2.82893 0.00118417
1100 1 0.85 0.95 -1.47366e-06 -2.4793 24.3417
1227 1 0.866667 0.9 0.0652944 -2.82893 0.00118417
1237 1 0.916667 0.95 0.0652944 -2.82893 0.00118417
1238 1 0.9 0.9 -1.47366e-06 -2.4793 24.3417
1240 1 0.95 0.95 -1.47366e-06 -2.4793 24.3417
1350 1 0.966667 0.9 0.0652944 -2.82893 0.00118417
31 1 0 0.1 0.197256 -2.84864 0.00032708
34 1 0 0 0.197256 -2.84864 0.00032708
35 1 0.0333333 0 0.131152 -2.84953 0.000226437
36 1 0.05 0.05 0.197256 -2.84864 0.00032708
44 1 0.0333333 0.1 0.131152 -2.84953 0.000226437
46 1 0.0833333 0.05 0.131152 -2.84953 0.000226437
135 1 0.1 0 0.197256 -2.84864 0.00032708
150 1 0.1 0.1 0.197256 -2.84864 0.00032708
151 1 0.133333 0.1 0.131152 -2.84953 0.000226437
152 1 0.15 0.05 0.197256 -2.84864 0.00032708
154 1 0.133333 0 0.131152 -2.84953 0.000226437
156 1 0.183333 0.05 0.131152 -2.84953 0.000226437
280 1 0.2 0.1 0.197256 -2.84864 0.00032708
283 1 0.2 0 0.197256 -2.84864 0.00032708
284 1 0.233333 0 0.131152 -2.84953 0.000226437
285 1 0.25 0.05 0.197256 -2.84864 0.00032708
303 1 0.233333 0.1 0.131152 -2.84953 0.000226437
305 1 0.283333 0.05 0.131152 -2.84953 0.000226437
415 1 0.3 0 0.197256 -2.84864 0.00032708
430 1 0.3 0.1 0.197256 -2.84864 0.00032708
431 1 0.333333 0.1 0.131152 -2.84953 0.000226437
434 1 0.333333 0 0.131152 -2.84953 0.000226437
432 1 0.35 0.05 0.197256 -2.84864 0.00032708
436 1 0.383333 0.05 0.131152 -2.84953 0.000226437
560 1 0.4 0.1 0.197256 -2.84864 0.00032708
563 1 0.4 0 0.197256 -2.84864 0.00032708
564 1 0.433333 0 0.131152 -2.84953 0.000226437
565 1 0.45 0.05 0.197256 -2.84864 0.00032708
583 1 0.433333 0.1 0.131152 -2.84953 0.000226437
585 1 0.483333 0.05 0.131152 -2.84953 0.000226437
695 1 0.5 0 0.197256 -2.84864 0.00032708
710 1 0.5 0.1 0.197256 -2.84864 0.00032708
711 1 0.533333 0.1 0.131152 -2.84953 0.000226437
712 1 0.55 0.05 0.197256 -2.84864 0.00032708
714 1 0.533333 0 0.131152 -2.84953 0.000226437
716 1 0.583333 0.05 0.131152 -2.84953 0.000226437
840 1 0.6 0.1 0.197256 -2.84864 0.00032708
843 1 0.6 0 0.197256 -2.84864 0.00032708
844 1 0.633333 0 0.131152 -2.84953 0.000226437
845 1 0.65 0.05 0.197256 -2.84864 0.00032708
863 1 0.633333 0.1 0.131152 -2.84953 0.000226437
865 1 0.683333 0.05 0.131152 -2.84953 0.000226437
975 1 0.7 0 0.197256 -2.84864 0.00032708
990 1 0.7 0.1 0.197256 -2.84864 0.00032708
991 1 0.733333 0.1 0.131152 -2.84953 0.000226437
992 1 0.75 0.05 0.197256 -2.84864 0.00032708
994 1 0.733333 0 0.131152 -2.84953 0.000226437
996 1 0.783333 0.05 0.131152 -2.84953 0.000226437
1120 1 0.8 0.1 0.197256 -2.84864 0.00032708
1123 1 0.8 0 0.197256 -2.84864 0.00032708
1124 1 0.833333 0 0.131152 -2.84953 0.000226437
1143 1 0.833333 0.1 0.131152 -2.84953 0.000226437
1125 1 0.85 0.05 0.197256 -2.84864 0.00032708
1145 1 0.883333 0.05 0.131152 -2.84953 0.000226437
1255 1 0.9 0 0.197256 -2.84864 0.00032708
1270 1 0.9 0.1 0.197256 -2.84864 0.00032708
1271 1 0.933333 0.1 0.131152 -2.84953 0.000226437
1272 1 0.95 0.05 0.197256 -2.84864 0.00032708
1274 1 0.933333 0 0.131152 -2.84953 0.000226437
1276 1 0.983333 0.05 0.131152 -2.84953 0.000226437
40 1 0 0.2 0.197256 -2.84864 0.00032708
41 1 0.0333333 0.2 0.131152 -2.84953 0.000226437
42 1 0.05 0.15 0.197256 -2.84864 0.00032708
43 1 0.05 0.25 0.197256 -2.84864 0.00032708
47 1 0.0833333 0.15 0.131152 -2.84953 0.000226437
60 1 0.0833333 0.25 0.131152 -2.84953 0.000226437
147 1 0.1 0.2 0.197256 -2.84864 0.00032708
153 1 0.15 0.15 0.197256 -2.84864 0.00032708
172 1 0.15 0.25 0.197256 -2.84864 0.00032708
174 1 0.133333 0.2 0.131152 -2.84953 0.000226437
176 1 0.183333 0.15 0.131152 -2.84953 0.000226437
177 1 0.183333 0.25 0.131152 -2.84953 0.000226437
299 1 0.2 0.2 0.197256 -2.84864 0.00032708
300 1 0.233333 0.2 0.131152 -2.84953 0.000226437
301 1 0.25 0.15 0.197256 -2.84864 0.00032708
302 1 0.25 0.25 0.197256 -2.84864 0.00032708
306 1 0.283333 0.15 0.131152 -2.84953 0.000226437
329 1 0.283333 0.25 0.131152 -2.84953 0.000226437
427 1 0.3 0.2 0.197256 -2.84864 0.00032708
454 1 0.333333 0.2 0.131152 -2.84953 0.000226437
433 1 0.35 0.15 0.197256 -2.84864 0.00032708
452 1 0.35 0.25 0.197256 -2.84864 0.00032708
456 1 0.383333 0.15 0.131152 -2.84953 0.000226437
457 1 0.383333 0.25 0.131152 -2.84953 0.000226437
579 1 0.4 0.2 0.197256 -2.84864 0.00032708
580 1 0.433333 0.2 0.131152 -2.84953 0.000226437
581 1 0.45 0.15 0.197256 -2.84864 0.00032708
582 1 0.45 0.25 0.197256 -2.84864 0.00032708
586 1 0.483333 0.15 0.131152 -2.84953 0.000226437
609 1 0.483333 0.25 0.131152 -2.84953 0.000226437
707 1 0.5 0.2 0.197256 -2.84864 0.00032708
713 1 0.55 0.15 0.197256 -2.84864 0.00032708
732 1 0.55 0.25 0.197256 -2.84864 0.00032708
734 1 0.533333 0.2 0.131152 -2.84953 0.000226437
736 1 0.583333 0.15 0.131152 -2.84953 0.000226437
737 1 0.583333 0.25 0.131152 -2.84953 0.000226437
859 1 0.6 0.2 0.197256 -2.84864 0.00032708
860 1 0.633333 0.2 0.131152 -2.84953 0.000226437
861 1 0.65 0.15 0.197256 -2.84864 0.00032708
862 1 0.65 0.25 0.197256 -2.84864 0.00032708
866 1 0.683333 0.15 0.131152 -2.84953 0.000226437
889 1 0.683333 0.25 0.131152 -2.84953 0.000226437
987 1 0.7 0.2 0.197256 -2.84864 0.00032708
993 1 0.75 0.15 0.197256 -2.84864 0.00032708
1012 1 0.75 0.25 0.197256 -2.84864 0.00032708
1014 1 0.733333 0.2 0.131152 -2.84953 0.000226437
1016 1 0.783333 0.15 0.131152 -2.84953 0.000226437
1017 1 0.783333 0.25 0.131152 -2.84953 0.000226437
1139 1 0.8 0.2 0.197256 -2.84864 0.00032708
1140 1 0.833333 0.2 0.131152 -2.84953 0.000226437
1141 1 0.85 0.15 0.197256 -2.84864 0.00032708
1142 1 0.85 0.25 0.197256 -2.84864 0.00032708
1146 1 0.883333 0.15 0.131152 -2.84953 0.000226437
1169 1 0.883333 0.25 0.131152 -2.84953 0.000226437
1267 1 0.9 0.2 0.197256 -2.84864 0.00032708
1273 1 0.95 0.15 0.197256 -2.84864 0.00032708
1292 1 0.95 0.25 0.197256 -2.84864 0.00032708
1294 1 0.933333 0.2 0.131152 -2.84953 0.000226437
1296 1 0.983333 0.15 0.131152 -2.84953 0.000226437
1297 1 0.983333 0.25 0.131152 -2.84953 0.000226437
37 1 0 0.3 0.197256 -2.84864 0.00032708
54 1 8.86546e-18 0.4 0.197256 -2.84864 0.00032708
55 1 0.0333333 0.4 0.131152 -2.84953 0.000226437
56 1 0.05 0.35 0.197256 -2.84864 0.00032708
58 1 0.0333333 0.3 0.131152 -2.84953 0.000226437
61 1 0.0833333 0.35 0.131152 -2.84953 0.000226437
167 1 0.1 0.4 0.197256 -2.84864 0.00032708
170 1 0.1 0.3 0.197256 -2.84864 0.00032708
171 1 0.133333 0.3 0.131152 -2.84953 0.000226437
173 1 0.15 0.35 0.197256 -2.84864 0.00032708
201 1 0.133333 0.4 0.131152 -2.84953 0.000226437
203 1 0.183333 0.35 0.131152 -2.84953 0.000226437
296 1 0.2 0.3 0.197256 -2.84864 0.00032708
323 1 0.2 0.4 0.197256 -2.84864 0.00032708
324 1 0.233333 0.4 0.131152 -2.84953 0.000226437
325 1 0.25 0.35 0.197256 -2.84864 0.00032708
327 1 0.233333 0.3 0.131152 -2.84953 0.000226437
330 1 0.283333 0.35 0.131152 -2.84953 0.000226437
447 1 0.3 0.4 0.197256 -2.84864 0.00032708
450 1 0.3 0.3 0.197256 -2.84864 0.00032708
451 1 0.333333 0.3 0.131152 -2.84953 0.000226437
481 1 0.333333 0.4 0.131152 -2.84953 0.000226437
453 1 0.35 0.35 0.197256 -2.84864 0.00032708
483 1 0.383333 0.35 0.131152 -2.84953 0.000226437
576 1 0.4 0.3 0.197256 -2.84864 0.00032708
603 1 0.4 0.4 0.197256 -2.84864 0.00032708
604 1 0.433333 0.4 0.131152 -2.84953 0.000226437
605 1 0.45 0.35 0.197256 -2.84864 0.00032708
607 1 0.433333 0.3 0.131152 -2.84953 0.000226437
610 1 0.483333 0.35 0.131152 -2.84953 0.000226437
727 1 0.5 0.4 0.197256 -2.84864 0.00032708
730 1 0.5 0.3 0.197256 -2.84864 0.00032708
731 1 0.533333 0.3 0.131152 -2.84953 0.000226437
733 1 0.55 0.35 0.197256 -2.84864 0.00032708
761 1 0.533333 0.4 0.131152 -2.84953 0.000226437
763 1 0.583333 0.35 0.131152 -2.84953 0.000226437
856 1 0.6 0.3 0.197256 -2.84864 0.00032708
883 1 0.6 0.4 0.197256 -2.84864 0.00032708
884 1 0.633333 0.4 0.131152 -2.84953 0.000226437
885 1 0.65 0.35 0.197256 -2.84864 0.00032708
887 1 0.633333 0.3 0.131152 -2.84953 0.000226437
890 1 0.683333 0.35 0.131152 -2.84953 0.000226437
1007 1 0.7 0.4 0.197256 -2.84864 0.00032708
1010 1 0.7 0.3 0.197256 -2.84864 0.00032708
1011 1 0.733333 0.3 0.131152 -2.84953 0.000226437
1013 1 0.75 0.35 0.197256 -2.84864 0.00032708
1041 1 0.733333 0.4 0.131152 -2.84953 0.000226437
1043 1 0.783333 0.35 0.131152 -2.84953 0.000226437
1136 1 0.8 0.3 0.197256 -2.84864 0.00032708
1163 1 0.8 0.4 0.197256 -2.84864 0.00032708
1164 1 0.833333 0.4 0.131152 -2.84953 0.000226437
1167 1 0.833333 0.3 0.131152 -2.84953 0.000226437
1165 1 0.85 0.35 0.197256 -2.84864 0.00032708
1170 1 0.883333 0.35 0.131152 -2.84953 0.000226437
1287 1 0.9 0.4 0.197256 -2.84864 0.00032708
1290 1 0.9 0.3 0.197256 -2.84864 0.00032708
1291 1 0.933333 0.3 0.131152 -2.84953 0.000226437
1293 1 0.95 0.35 0.197256 -2.84864 0.00032708
1316 1 0.933333 0.4 0.131152 -2.84953 0.000226437
1318 1 0.983333 0.35 0.131152 -2.84953 0.000226437
51 1 0 0.5 0.197256 -2.84864 0.00032708
57 1 0.05 0.45 0.197256 -2.84864 0.00032708
74 1 0.05 0.55 0.197256 -2.84864 0.00032708
76 1 0.0333333 0.5 0.131152 -2.84953 0.000226437
78 1 0.0833333 0.45 0.131152 -2.84953 0.000226437
79 1 0.0833333 0.55 0.131152 -2.84953 0.000226437
197 1 0.1 0.5 0.197256 -2.84864 0.00032708
198 1 0.133333 0.5 0.131152 -2.84953 0.000226437
199 1 0.15 0.45 0.197256 -2.84864 0.00032708
200 1 0.15 0.55 0.197256 -2.84864 0.00032708
204 1 0.183333 0.45 0.131152 -2.84953 0.000226437
227 1 0.183333 0.55 0.131152 -2.84953 0.000226437
320 1 0.2 0.5 0.197256 -2.84864 0.00032708
326 1 0.25 0.45 0.197256 -2.84864 0.00032708
352 1 0.25 0.55 0.197256 -2.84864 0.00032708
354 1 0.233333 0.5 0.131152 -2.84953 0.000226437
356 1 0.283333 0.45 0.131152 -2.84953 0.000226437
357 1 0.283333 0.55 0.131152 -2.84953 0.000226437
477 1 0.3 0.5 0.197256 -2.84864 0.00032708
478 1 0.333333 0.5 0.131152 -2.84953 0.000226437
479 1 0.35 0.45 0.197256 -2.84864 0.00032708
480 1 0.35 0.55 0.197256 -2.84864 0.00032708
484 1 0.383333 0.45 0.131152 -2.84953 0.000226437
507 1 0.383333 0.55 0.131152 -2.84953 0.000226437
600 1 0.4 0.5 0.197256 -2.84864 0.00032708
606 1 0.45 0.45 0.197256 -2.84864 0.00032708
632 1 0.45 0.55 0.197256 -2.84864 0.00032708
634 1 0.433333 0.5 0.131152 -2.84953 0.000226437
636 1 0.483333 0.45 0.131152 -2.84953 0.000226437
637 1 0.483333 0.55 0.131152 -2.84953 0.000226437
757 1 0.5 0.5 0.197256 -2.84864 0.00032708
758 1 0.533333 0.5 0.131152 -2.84953 0.000226437
759 1 0.55 0.45 0.197256 -2.84864 0.00032708
760 1 0.55 0.55 0.197256 -2.84864 0.00032708
764 1 0.583333 0.45 0.131152 -2.84953 0.000226437
787 1 0.583333 0.55 0.131152 -2.84953 0.000226437
880 1 0.6 0.5 0.197256 -2.84864 0.00032708
886 1 0.65 0.45 0.197256 -2.84864 0.00032708
912 1 0.65 0.55 0.197256 -2.84864 0.00032708
914 1 0.633333 0.5 0.131152 -2.84953 0.000226437
916 1 0.683333 0.45 0.131152 -2.84953 0.000226437
917 1 0.683333 0.55 0.131152 -2.84953 0.000226437
1037 1 0.7 0.5 0.197256 -2.84864 0.00032708
1038 1 0.733333 0.5 0.131152 -2.84953 0.000226437
1039 1 0.75 0.45 0.197256 -2.84864 0.00032708
1040 1 0.75 0.55 0.197256 -2.84864 0.00032708
1044 1 0.783333 0.45 0.131152 -2.84953 0.000226437
1067 1 0.783333 0.55 0.131152 -2.84953 0.000226437
1160 1 0.8 0.5 0.197256 -2.84864 0.00032708
1194 1 0.833333 0.5 0.131152 -2.84953 0.000226437
1166 1 0.85 0.45 0.197256 -2.84864 0.00032708
1192 1 0.85 0.55 0.197256 -2.84864 0.00032708
1196 1 0.883333 0.45 0.131152 -2.84953 0.000226437
1197 1 0.883333 0.55 0.131152 -2.84953 0.000226437
1312 1 0.9 0.5 0.197256 -2.84864 0.00032708
1313 1 0.933333 0.5 0.131152 -2.84953 0.000226437