ITEM: TIMESTEP
50
ITEM: NUMBER OF ATOMS
3200
ITEM: BOX BOUNDS pp pp ss
0.0000000000000000e+00 5.0092067021360698e+01
0.0000000000000000e+00 2.8920668379047399e+01
3.8451742731260487e-02 3.5381988531723906e+01
ITEM: ATOMS id type xs ys zs c_peratom c_csym
1 1 0 0.1 -0.00520605 -2.47716 24.5058
2 1 0.0166667 0.05 0.0604243 -2.83182 0.00474791
4 1 0 0 -0.00520605 -2.47716 24.5058
5 1 0.05 0.05 -0.00520605 -2.47716 24.5058
45 1 0.0666667 0.1 0.0604243 -2.83182 0.00474791
48 1 0.0666667 0 0.0604243 -2.83182 0.00474791
49 1 0.1 0 -0.00520605 -2.47716 24.5058
50 1 0.116667 0.05 0.0604243 -2.83182 0.00474791
66 1 0.1 0.1 -0.00520605 -2.47716 24.5058
67 1 0.15 0.05 -0.00520605 -2.47716 24.5058
155 1 0.166667 0 0.0604243 -2.83182 0.00474791
178 1 0.166667 0.1 0.0604243 -2.83182 0.00474791
179 1 0.2 0.1 -0.00520605 -2.47716 24.5058
180 1 0.216667 0.05 0.0604243 -2.83182 0.00474791
182 1 0.2 0 -0.00520605 -2.47716 24.5058
183 1 0.25 0.05 -0.00520605 -2.47716 24.5058
304 1 0.266667 0.1 0.0604243 -2.83182 0.00474791
307 1 0.266667 0 0.0604243 -2.83182 0.00474791
308 1 0.3 0 -0.00520605 -2.47716 24.5058
309 1 0.316667 0.05 0.0604243 -2.83182 0.00474791
335 1 0.3 0.1 -0.00520605 -2.47716 24.5058
336 1 0.35 0.05 -0.00520605 -2.47716 24.5058
435 1 0.366667 0 0.0604243 -2.83182 0.00474791
458 1 0.366667 0.1 0.0604243 -2.83182 0.00474791
459 1 0.4 0.1 -0.00520605 -2.47716 24.5058
460 1 0.416667 0.05 0.0604243 -2.83182 0.00474791
462 1 0.4 0 -0.00520605 -2.47716 24.5058
463 1 0.45 0.05 -0.00520605 -2.47716 24.5058
584 1 0.466667 0.1 0.0604243 -2.83182 0.00474791
587 1 0.466667 0 0.0604243 -2.83182 0.00474791
588 1 0.5 0 -0.00520605 -2.47716 24.5058
615 1 0.5 0.1 -0.00520605 -2.47716 24.5058
589 1 0.516667 0.05 0.0604243 -2.83182 0.00474791
616 1 0.55 0.05 -0.00520605 -2.47716 24.5058
715 1 0.566667 0 0.0604243 -2.83182 0.00474791
738 1 0.566667 0.1 0.0604243 -2.83182 0.00474791
739 1 0.6 0.1 -0.00520605 -2.47716 24.5058
740 1 0.616667 0.05 0.0604243 -2.83182 0.00474791
742 1 0.6 0 -0.00520605 -2.47716 24.5058
743 1 0.65 0.05 -0.00520605 -2.47716 24.5058
864 1 0.666667 0.1 0.0604243 -2.83182 0.00474791
867 1 0.666667 0 0.0604243 -2.83182 0.00474791
868 1 0.7 0 -0.00520605 -2.47716 24.5058
869 1 0.716667 0.05 0.0604243 -2.83182 0.00474791
895 1 0.7 0.1 -0.00520605 -2.47716 24.5058
896 1 0.75 0.05 -0.00520605 -2.47716 24.5058
995 1 0.766667 0 0.0604243 -2.83182 0.00474791
1018 1 0.766667 0.1 0.0604243 -2.83182 0.00474791
1019 1 0.8 0.1 -0.00520605 -2.47716 24.5058
1020 1 0.816667 0.05 0.0604243 -2.83182 0.00474791
1022 1 0.8 0 -0.00520605 -2.47716 24.5058
1023 1 0.85 0.05 -0.00520605 -2.47716 24.5058
1144 1 0.866667 0.1 0.0604243 -2.83182 0.00474791
1147 1 0.866667 0 0.0604243 -2.83182 0.00474791
1148 1 0.9 0 -0.00520605 -2.47716 24.5058
1149 1 0.916667 0.05 0.0604243 -2.83182 0.00474791
1175 1 0.9 0.1 -0.00520605 -2.47716 24.5058
1176 1 0.95 0.05 -0.00520605 -2.47716 24.5058
1275 1 0.966667 0 0.0604243 -2.83182 0.00474791
1298 1 0.966667 0.1 0.0604243 -2.83182 0.00474791
3 1 0.0166667 0.15 0.0604243 -2.83182 0.00474791
7 1 0.0166667 0.25 0.0604243 -2.83182 0.00474791
9 1 0 0.2 -0.00520605 -2.47716 24.5058
10 1 0.05 0.15 -0.00520605 -2.47716 24.5058
11 1 0.05 0.25 -0.00520605 -2.47716 24.5058
62 1 0.0666667 0.2 0.0604243 -2.83182 0.00474791
63 1 0.1 0.2 -0.00520605 -2.47716 24.5058
64 1 0.116667 0.15 0.0604243 -2.83182 0.00474791
65 1 0.116667 0.25 0.0604243 -2.83182 0.00474791
68 1 0.15 0.15 -0.00520605 -2.47716 24.5058
85 1 0.15 0.25 -0.00520605 -2.47716 24.5058
175 1 0.166667 0.2 0.0604243 -2.83182 0.00474791
181 1 0.216667 0.15 0.0604243 -2.83182 0.00474791
207 1 0.216667 0.25 0.0604243 -2.83182 0.00474791
209 1 0.2 0.2 -0.00520605 -2.47716 24.5058
210 1 0.25 0.15 -0.00520605 -2.47716 24.5058
211 1 0.25 0.25 -0.00520605 -2.47716 24.5058
331 1 0.266667 0.2 0.0604243 -2.83182 0.00474791
332 1 0.3 0.2 -0.00520605 -2.47716 24.5058
333 1 0.316667 0.15 0.0604243 -2.83182 0.00474791
334 1 0.316667 0.25 0.0604243 -2.83182 0.00474791
337 1 0.35 0.15 -0.00520605 -2.47716 24.5058
363 1 0.35 0.25 -0.00520605 -2.47716 24.5058
455 1 0.366667 0.2 0.0604243 -2.83182 0.00474791
461 1 0.416667 0.15 0.0604243 -2.83182 0.00474791
487 1 0.416667 0.25 0.0604243 -2.83182 0.00474791
489 1 0.4 0.2 -0.00520605 -2.47716 24.5058
490 1 0.45 0.15 -0.00520605 -2.47716 24.5058
491 1 0.45 0.25 -0.00520605 -2.47716 24.5058
611 1 0.466667 0.2 0.0604243 -2.83182 0.00474791
612 1 0.5 0.2 -0.00520605 -2.47716 24.5058
613 1 0.516667 0.15 0.0604243 -2.83182 0.00474791
614 1 0.516667 0.25 0.0604243 -2.83182 0.00474791
617 1 0.55 0.15 -0.00520605 -2.47716 24.5058
643 1 0.55 0.25 -0.00520605 -2.47716 24.5058
735 1 0.566667 0.2 0.0604243 -2.83182 0.00474791
741 1 0.616667 0.15 0.0604243 -2.83182 0.00474791
767 1 0.616667 0.25 0.0604243 -2.83182 0.00474791
769 1 0.6 0.2 -0.00520605 -2.47716 24.5058
770 1 0.65 0.15 -0.00520605 -2.47716 24.5058
771 1 0.65 0.25 -0.00520605 -2.47716 24.5058
891 1 0.666667 0.2 0.0604243 -2.83182 0.00474791
892 1 0.7 0.2 -0.00520605 -2.47716 24.5058
893 1 0.716667 0.15 0.0604243 -2.83182 0.00474791
894 1 0.716667 0.25 0.0604243 -2.83182 0.00474791
897 1 0.75 0.15 -0.00520605 -2.47716 24.5058
923 1 0.75 0.25 -0.00520605 -2.47716 24.5058
1015 1 0.766667 0.2 0.0604243 -2.83182 0.00474791
1021 1 0.816667 0.15 0.0604243 -2.83182 0.00474791
1047 1 0.816667 0.25 0.0604243 -2.83182 0.00474791
1049 1 0.8 0.2 -0.00520605 -2.47716 24.5058
1050 1 0.85 0.15 -0.00520605 -2.47716 24.5058
1051 1 0.85 0.25 -0.00520605 -2.47716 24.5058
1171 1 0.866667 0.2 0.0604243 -2.83182 0.00474791
1172 1 0.9 0.2 -0.00520605 -2.47716 24.5058
1173 1 0.916667 0.15 0.0604243 -2.83182 0.00474791
1174 1 0.916667 0.25 0.0604243 -2.83182 0.00474791
1177 1 0.95 0.15 -0.00520605 -2.47716 24.5058
1203 1 0.95 0.25 -0.00520605 -2.47716 24.5058
1295 1 0.966667 0.2 0.0604243 -2.83182 0.00474791
6 1 0 0.3 -0.00520605 -2.47716 24.5058
8 1 0.0166667 0.35 0.0604243 -2.83182 0.00474791
15 1 0 0.4 -0.00520605 -2.47716 24.5058
16 1 0.05 0.35 -0.00520605 -2.47716 24.5058
59 1 0.0666667 0.3 0.0604243 -2.83182 0.00474791
80 1 0.0666667 0.4 0.0604243 -2.83182 0.00474791
81 1 0.1 0.4 -0.00520605 -2.47716 24.5058
82 1 0.116667 0.35 0.0604243 -2.83182 0.00474791
84 1 0.1 0.3 -0.00520605 -2.47716 24.5058
86 1 0.15 0.35 -0.00520605 -2.47716 24.5058
202 1 0.166667 0.4 0.0604243 -2.83182 0.00474791
205 1 0.166667 0.3 0.0604243 -2.83182 0.00474791
206 1 0.2 0.3 -0.00520605 -2.47716 24.5058
208 1 0.216667 0.35 0.0604243 -2.83182 0.00474791
233 1 0.2 0.4 -0.00520605 -2.47716 24.5058
234 1 0.25 0.35 -0.00520605 -2.47716 24.5058
328 1 0.266667 0.3 0.0604243 -2.83182 0.00474791
358 1 0.266667 0.4 0.0604243 -2.83182 0.00474791
359 1 0.3 0.4 -0.00520605 -2.47716 24.5058
360 1 0.316667 0.35 0.0604243 -2.83182 0.00474791
362 1 0.3 0.3 -0.00520605 -2.47716 24.5058
364 1 0.35 0.35 -0.00520605 -2.47716 24.5058
482 1 0.366667 0.4 0.0604243 -2.83182 0.00474791
485 1 0.366667 0.3 0.0604243 -2.83182 0.00474791
486 1 0.4 0.3 -0.00520605 -2.47716 24.5058
488 1 0.416667 0.35 0.0604243 -2.83182 0.00474791
513 1 0.4 0.4 -0.00520605 -2.47716 24.5058
514 1 0.45 0.35 -0.00520605 -2.47716 24.5058
608 1 0.466667 0.3 0.0604243 -2.83182 0.00474791
638 1 0.466667 0.4 0.0604243 -2.83182 0.00474791
639 1 0.5 0.4 -0.00520605 -2.47716 24.5058
642 1 0.5 0.3 -0.00520605 -2.47716 24.5058
640 1 0.516667 0.35 0.0604243 -2.83182 0.00474791
644 1 0.55 0.35 -0.00520605 -2.47716 24.5058
762 1 0.566667 0.4 0.0604243 -2.83182 0.00474791
765 1 0.566667 0.3 0.0604243 -2.83182 0.00474791
766 1 0.6 0.3 -0.00520605 -2.47716 24.5058
768 1 0.616667 0.35 0.0604243 -2.83182 0.00474791
793 1 0.6 0.4 -0.00520605 -2.47716 24.5058
794 1 0.65 0.35 -0.00520605 -2.47716 24.5058
888 1 0.666667 0.3 0.0604243 -2.83182 0.00474791
918 1 0.666667 0.4 0.0604243 -2.83182 0.00474791
919 1 0.7 0.4 -0.00520605 -2.47716 24.5058
920 1 0.716667 0.35 0.0604243 -2.83182 0.00474791
922 1 0.7 0.3 -0.00520605 -2.47716 24.5058
924 1 0.75 0.35 -0.00520605 -2.47716 24.5058
1042 1 0.766667 0.4 0.0604243 -2.83182 0.00474791
1045 1 0.766667 0.3 0.0604243 -2.83182 0.00474791
1046 1 0.8 0.3 -0.00520605 -2.47716 24.5058
1048 1 0.816667 0.35 0.0604243 -2.83182 0.00474791
1073 1 0.8 0.4 -0.00520605 -2.47716 24.5058
1074 1 0.85 0.35 -0.00520605 -2.47716 24.5058
1168 1 0.866667 0.3 0.0604243 -2.83182 0.00474791
1198 1 0.866667 0.4 0.0604243 -2.83182 0.00474791
1199 1 0.9 0.4 -0.00520605 -2.47716 24.5058
1200 1 0.916667 0.35 0.0604243 -2.83182 0.00474791
1202 1 0.9 0.3 -0.00520605 -2.47716 24.5058
1204 1 0.95 0.35 -0.00520605 -2.47716 24.5058
1317 1 0.966667 0.4 0.0604243 -2.83182 0.00474791
1320 1 0.966667 0.3 0.0604243 -2.83182 0.00474791
12 1 0 0.5 -0.00520605 -2.47716 24.5058
13 1 0.0166667 0.45 0.0604243 -2.83182 0.00474791
14 1 0.0166667 0.55 0.0604243 -2.83182 0.00474791
17 1 0.05 0.45 -0.00520605 -2.47716 24.5058
22 1 0.05 0.55 -0.00520605 -2.47716 24.5058
77 1 0.0666667 0.5 0.0604243 -2.83182 0.00474791
83 1 0.116667 0.45 0.0604243 -2.83182 0.00474791
100 1 0.116667 0.55 0.0604243 -2.83182 0.00474791
102 1 0.1 0.5 -0.00520605 -2.47716 24.5058
103 1 0.15 0.45 -0.00520605 -2.47716 24.5058
104 1 0.15 0.55 -0.00520605 -2.47716 24.5058
229 1 0.166667 0.5 0.0604243 -2.83182 0.00474791
230 1 0.2 0.5 -0.00520605 -2.47716 24.5058
231 1 0.216667 0.45 0.0604243 -2.83182 0.00474791
232 1 0.216667 0.55 0.0604243 -2.83182 0.00474791
235 1 0.25 0.45 -0.00520605 -2.47716 24.5058
250 1 0.25 0.55 -0.00520605 -2.47716 24.5058
355 1 0.266667 0.5 0.0604243 -2.83182 0.00474791
361 1 0.316667 0.45 0.0604243 -2.83182 0.00474791
380 1 0.316667 0.55 0.0604243 -2.83182 0.00474791
382 1 0.3 0.5 -0.00520605 -2.47716 24.5058
383 1 0.35 0.45 -0.00520605 -2.47716 24.5058
384 1 0.35 0.55 -0.00520605 -2.47716 24.5058
509 1 0.366667 0.5 0.0604243 -2.83182 0.00474791
510 1 0.4 0.5 -0.00520605 -2.47716 24.5058
511 1 0.416667 0.45 0.0604243 -2.83182 0.00474791
512 1 0.416667 0.55 0.0604243 -2.83182 0.00474791
515 1 0.45 0.45 -0.00520605 -2.47716 24.5058
530 1 0.45 0.55 -0.00520605 -2.47716 24.5058
635 1 0.466667 0.5 0.0604243 -2.83182 0.00474791
662 1 0.5 0.5 -0.00520605 -2.47716 24.5058
641 1 0.516667 0.45 0.0604243 -2.83182 0.00474791
660 1 0.516667 0.55 0.0604243 -2.83182 0.00474791
663 1 0.55 0.45 -0.00520605 -2.47716 24.5058
664 1 0.55 0.55 -0.00520605 -2.47716 24.5058
789 1 0.566667 0.5 0.0604243 -2.83182 0.00474791
790 1 0.6 0.5 -0.00520605 -2.47716 24.5058
791 1 0.616667 0.45 0.0604243 -2.83182 0.00474791
792 1 0.616667 0.55 0.0604243 -2.83182 0.00474791
795 1 0.65 0.45 -0.00520605 -2.47716 24.5058
810 1 0.65 0.55 -0.00520605 -2.47716 24.5058
915 1 0.666667 0.5 0.0604243 -2.83182 0.00474791
921 1 0.716667 0.45 0.0604243 -2.83182 0.00474791
940 1 0.716667 0.55 0.0604243 -2.83182 0.00474791
942 1 0.7 0.5 -0.00520605 -2.47716 24.5058
943 1 0.75 0.45 -0.00520605 -2.47716 24.5058
944 1 0.75 0.55 -0.00520605 -2.47716 24.5058
1069 1 0.766667 0.5 0.0604243 -2.83182 0.00474791
1070 1 0.8 0.5 -0.00520605 -2.47716 24.5058
1071 1 0.816667 0.45 0.0604243 -2.83182 0.00474791
1072 1 0.816667 0.55 0.0604243 -2.83182 0.00474791
1075 1 0.85 0.45 -0.00520605 -2.47716 24.5058
1090 1 0.85 0.55 -0.00520605 -2.47716 24.5058
1195 1 0.866667 0.5 0.0604243 -2.83182 0.00474791
1201 1 0.916667 0.45 0.0604243 -2.83182 0.00474791
1220 1 0.916667 0.55 0.0604243 -2.83182 0.00474791
1222 1 0.9 0.5 -0.00520605 -2.47716 24.5058
1223 1 0.95 0.45 -0.00520605 -2.47716 24.5058
1224 1 0.95 0.55 -0.00520605 -2.47716 24.5058
1338 1 0.966667 0.5 0.0604243 -2.83182 0.00474791
18 1 0 0.7 -0.00520605 -2.47716 24.5058
19 1 0.0166667 0.65 0.0604243 -2.83182 0.00474791
21 1 0 0.6 -0.00520605 -2.47716 24.5058
23 1 0.05 0.65 -0.00520605 -2.47716 24.5058
95 1 0.0666667 0.7 0.0604243 -2.83182 0.00474791
98 1 0.0666667 0.6 0.0604243 -2.83182 0.00474791
99 1 0.1 0.6 -0.00520605 -2.47716 24.5058
101 1 0.116667 0.65 0.0604243 -2.83182 0.00474791
114 1 0.1 0.7 -0.00520605 -2.47716 24.5058
115 1 0.15 0.65 -0.00520605 -2.47716 24.5058
226 1 0.166667 0.6 0.0604243 -2.83182 0.00474791
245 1 0.166667 0.7 0.0604243 -2.83182 0.00474791
246 1 0.2 0.7 -0.00520605 -2.47716 24.5058
247 1 0.216667 0.65 0.0604243 -2.83182 0.00474791
249 1 0.2 0.6 -0.00520605 -2.47716 24.5058
251 1 0.25 0.65 -0.00520605 -2.47716 24.5058
375 1 0.266667 0.7 0.0604243 -2.83182 0.00474791
378 1 0.266667 0.6 0.0604243 -2.83182 0.00474791
379 1 0.3 0.6 -0.00520605 -2.47716 24.5058
381 1 0.316667 0.65 0.0604243 -2.83182 0.00474791
394 1 0.3 0.7 -0.00520605 -2.47716 24.5058
395 1 0.35 0.65 -0.00520605 -2.47716 24.5058
506 1 0.366667 0.6 0.0604243 -2.83182 0.00474791
525 1 0.366667 0.7 0.0604243 -2.83182 0.00474791
526 1 0.4 0.7 -0.00520605 -2.47716 24.5058
527 1 0.416667 0.65 0.0604243 -2.83182 0.00474791
529 1 0.4 0.6 -0.00520605 -2.47716 24.5058
531 1 0.45 0.65 -0.00520605 -2.47716 24.5058
655 1 0.466667 0.7 0.0604243 -2.83182 0.00474791
658 1 0.466667 0.6 0.0604243 -2.83182 0.00474791
659 1 0.5 0.6 -0.00520605 -2.47716 24.5058
674 1 0.5 0.7 -0.00520605 -2.47716 24.5058
661 1 0.516667 0.65 0.0604243 -2.83182 0.00474791
675 1 0.55 0.65 -0.00520605 -2.47716 24.5058
786 1 0.566667 0.6 0.0604243 -2.83182 0.00474791
805 1 0.566667 0.7 0.0604243 -2.83182 0.00474791
806 1 0.6 0.7 -0.00520605 -2.47716 24.5058
807 1 0.616667 0.65 0.0604243 -2.83182 0.00474791
809 1 0.6 0.6 -0.00520605 -2.47716 24.5058
811 1 0.65 0.65 -0.00520605 -2.47716 24.5058
935 1 0.666667 0.7 0.0604243 -2.83182 0.00474791
938 1 0.666667 0.6 0.0604243 -2.83182 0.00474791
939 1 0.7 0.6 -0.00520605 -2.47716 24.5058
941 1 0.716667 0.65 0.0604243 -2.83182 0.00474791
954 1 0.7 0.7 -0.00520605 -2.47716 24.5058
955 1 0.75 0.65 -0.00520605 -2.47716 24.5058
1066 1 0.766667 0.6 0.0604243 -2.83182 0.00474791
1085 1 0.766667 0.7 0.0604243 -2.83182 0.00474791
1086 1 0.8 0.7 -0.00520605 -2.47716 24.5058
1087 1 0.816667 0.65 0.0604243 -2.83182 0.00474791
1089 1 0.8 0.6 -0.00520605 -2.47716 24.5058
1091 1 0.85 0.65 -0.00520605 -2.47716 24.5058
1215 1 0.866667 0.7 0.0604243 -2.83182 0.00474791
1218 1 0.866667 0.6 0.0604243 -2.83182 0.00474791
1219 1 0.9 0.6 -0.00520605 -2.47716 24.5058
1221 1 0.916667 0.65 0.0604243 -2.83182 0.00474791
1234 1 0.9 0.7 -0.00520605 -2.47716 24.5058
1235 1 0.95 0.65 -0.00520605 -2.47716 24.5058
1335 1 0.966667 0.6 0.0604243 -2.83182 0.00474791
1348 1 0.966667 0.7 0.0604243 -2.83182 0.00474791
20 1 0.0166667 0.75 0.0604243 -2.83182 0.00474791
25 1 0.0166667 0.85 0.0604243 -2.83182 0.00474791
27 1 0 0.8 -0.00520605 -2.47716 24.5058
28 1 0.05 0.75 -0.00520605 -2.47716 24.5058
29 1 0.05 0.85 -0.00520605 -2.47716 24.5058
110 1 0.0666667 0.8 0.0604243 -2.83182 0.00474791
111 1 0.1 0.8 -0.00520605 -2.47716 24.5058
112 1 0.116667 0.75 0.0604243 -2.83182 0.00474791
113 1 0.116667 0.85 0.0604243 -2.83182 0.00474791
116 1 0.15 0.75 -0.00520605 -2.47716 24.5058
119 1 0.15 0.85 -0.00520605 -2.47716 24.5058
242 1 0.166667 0.8 0.0604243 -2.83182 0.00474791
248 1 0.216667 0.75 0.0604243 -2.83182 0.00474791
255 1 0.216667 0.85 0.0604243 -2.83182 0.00474791
257 1 0.2 0.8 -0.00520605 -2.47716 24.5058
258 1 0.25 0.75 -0.00520605 -2.47716 24.5058
259 1 0.25 0.85 -0.00520605 -2.47716 24.5058
390 1 0.266667 0.8 0.0604243 -2.83182 0.00474791
391 1 0.3 0.8 -0.00520605 -2.47716 24.5058
392 1 0.316667 0.75 0.0604243 -2.83182 0.00474791
393 1 0.316667 0.85 0.0604243 -2.83182 0.00474791
396 1 0.35 0.75 -0.00520605 -2.47716 24.5058
399 1 0.35 0.85 -0.00520605 -2.47716 24.5058
522 1 0.366667 0.8 0.0604243 -2.83182 0.00474791
528 1 0.416667 0.75 0.0604243 -2.83182 0.00474791
535 1 0.416667 0.85 0.0604243 -2.83182 0.00474791
537 1 0.4 0.8 -0.00520605 -2.47716 24.5058
538 1 0.45 0.75 -0.00520605 -2.47716 24.5058
539 1 0.45 0.85 -0.00520605 -2.47716 24.5058
670 1 0.466667 0.8 0.0604243 -2.83182 0.00474791
671 1 0.5 0.8 -0.00520605 -2.47716 24.5058
672 1 0.516667 0.75 0.0604243 -2.83182 0.00474791
673 1 0.516667 0.85 0.0604243 -2.83182 0.00474791
676 1 0.55 0.75 -0.00520605 -2.47716 24.5058
679 1 0.55 0.85 -0.00520605 -2.47716 24.5058
802 1 0.566667 0.8 0.0604243 -2.83182 0.00474791
808 1 0.616667 0.75 0.0604243 -2.83182 0.00474791
815 1 0.616667 0.85 0.0604243 -2.83182 0.00474791
817 1 0.6 0.8 -0.00520605 -2.47716 24.5058
818 1 0.65 0.75 -0.00520605 -2.47716 24.5058
819 1 0.65 0.85 -0.00520605 -2.47716 24.5058
950 1 0.666667 0.8 0.0604243 -2.83182 0.00474791
951 1 0.7 0.8 -0.00520605 -2.47716 24.5058
952 1 0.716667 0.75 0.0604243 -2.83182 0.00474791
953 1 0.716667 0.85 0.0604243 -2.83182 0.00474791
956 1 0.75 0.75 -0.00520605 -2.47716 24.5058
959 1 0.75 0.85 -0.00520605 -2.47716 24.5058
1082 1 0.766667 0.8 0.0604243 -2.83182 0.00474791
1088 1 0.816667 0.75 0.0604243 -2.83182 0.00474791
1095 1 0.816667 0.85 0.0604243 -2.83182 0.00474791
1097 1 0.8 0.8 -0.00520605 -2.47716 24.5058
1098 1 0.85 0.75 -0.00520605 -2.47716 24.5058
1099 1 0.85 0.85 -0.00520605 -2.47716 24.5058
1230 1 0.866667 0.8 0.0604243 -2.83182 0.00474791
1231 1 0.9 0.8 -0.00520605 -2.47716 24.5058
1232 1 0.916667 0.75 0.0604243 -2.83182 0.00474791
1233 1 0.916667 0.85 0.0604243 -2.83182 0.00474791
1236 1 0.95 0.75 -0.00520605 -2.47716 24.5058
1239 1 0.95 0.85 -0.00520605 -2.47716 24.5058
1345 1 0.966667 0.8 0.0604243 -2.83182 0.00474791
24 1 0 0.9 -0.00520605 -2.47716 24.5058
26 1 0.0166667 0.95 0.0604243 -2.83182 0.00474791
30 1 0.05 0.95 -0.00520605 -2.47716 24.5058
107 1 0.0666667 0.9 0.0604243 -2.83182 0.00474791
117 1 0.116667 0.95 0.0604243 -2.83182 0.00474791
118 1 0.1 0.9 -0.00520605 -2.47716 24.5058
120 1 0.15 0.95 -0.00520605 -2.47716 24.5058
253 1 0.166667 0.9 0.0604243 -2.83182 0.00474791
254 1 0.2 0.9 -0.00520605 -2.47716 24.5058
256 1 0.216667 0.95 0.0604243 -2.83182 0.00474791
260 1 0.25 0.95 -0.00520605 -2.47716 24.5058
387 1 0.266667 0.9 0.0604243 -2.83182 0.00474791
397 1 0.316667 0.95 0.0604243 -2.83182 0.00474791
398 1 0.3 0.9 -0.00520605 -2.47716 24.5058
400 1 0.35 0.95 -0.00520605 -2.47716 24.5058
533 1 0.366667 0.9 0.0604243 -2.83182 0.00474791
534 1 0.4 0.9 -0.00520605 -2.47716 24.5058
536 1 0.416667 0.95 0.0604243 -2.83182 0.00474791
540 1 0.45 0.95 -0.00520605 -2.47716 24.5058
667 1 0.466667 0.9 0.0604243 -2.83182 0.00474791
678 1 0.5 0.9 -0.00520605 -2.47716 24.5058
677 1 0.516667 0.95 0.0604243 -2.83182 0.00474791
680 1 0.55 0.95 -0.00520605 -2.47716 24.5058
813 1 0.566667 0.9 0.0604243 -2.83182 0.00474791
814 1 0.6 0.9 -0.00520605 -2.47716 24.5058
816 1 0.616667 0.95 0.0604243 -2.83182 0.00474791
820 1 0.65 0.95 -0.00520605 -2.47716 24.5058
947 1 0.666667 0.9 0.0604243 -2.83182 0.00474791
957 1 0.716667 0.95 0.0604243 -2.83182 0.00474791
958 1 0.7 0.9 -0.00520605 -2.47716 24.5058
960 1 0.75 0.95 -0.00520605 -2.47716 24.5058
1093 1 0.766667 0.9 0.0604243 -2.83182 0.00474791
1094 1 0.8 0.9 -0.00520605 -2.47716 24.5058
1096 1 0.816667 0.95 0.0604243 -2.83182 0.00474791
1100 1 0.85 0.95 -0.00520605 -2.47716 24.5058
1227 1 0.866667 0.9 0.0604243 -2.83182 0.00474791
1237 1 0.916667 0.95 0.0604243 -2.83182 0.00474791
1238 1 0.9 0.9 -0.00520605 -2.47716 24.5058
1240 1 0.95 0.95 -0.00520605 -2.47716 24.5058
1350 1 0.966667 0.9 0.0604243 -2.83182 0.00474791
31 1 0 0.1 0.193981 -2.85006 3.79552e-06
34 1 0 0 0.193981 -2.85006 3.79552e-06
35 1 0.0333333 0 0.12718 -2.8512 7.47496e-06
36 1 0.05 0.05 0.193981 -2.85006 3.79552e-06
44 1 0.0333333 0.1 0.12718 -2.8512 7.47496e-06
46 1 0.0833333 0.05 0.12718 -2.8512 7.47496e-06
135 1 0.1 0 0.193981 -2.85006 3.79552e-06
150 1 0.1 0.1 0.193981 -2.85006 3.79552e-06
151 1 0.133333 0.1 0.12718 -2.8512 7.47496e-06
152 1 0.15 0.05 0.193981 -2.85006 3.79552e-06
154 1 0.133333 0 0.12718 -2.8512 7.47496e-06
156 1 0.183333 0.05 0.12718 -2.8512 7.47496e-06
280 1 0.2 0.1 0.193981 -2.85006 3.79552e-06
283 1 0.2 0 0.193981 -2.85006 3.79552e-06
284 1 0.233333 0 0.12718 -2.8512 7.47496e-06
285 1 0.25 0.05 0.193981 -2.85006 3.79552e-06
303 1 0.233333 0.1 0.12718 -2.8512 7.47496e-06
305 1 0.283333 0.05 0.12718 -2.8512 7.47496e-06
415 1 0.3 0 0.193981 -2.85006 3.79552e-06
430 1 0.3 0.1 0.193981 -2.85006 3.79552e-06
431 1 0.333333 0.1 0.12718 -2.8512 7.47496e-06
434 1 0.333333 0 0.12718 -2.8512 7.47496e-06
432 1 0.35 0.05 0.193981 -2.85006 3.79552e-06
436 1 0.383333 0.05 0.12718 -2.8512 7.47496e-06
560 1 0.4 0.1 0.193981 -2.85006 3.79552e-06
563 1 0.4 0 0.193981 -2.85006 3.79552e-06
564 1 0.433333 0 0.12718 -2.8512 7.47496e-06
565 1 0.45 0.05 0.193981 -2.85006 3.79552e-06
583 1 0.433333 0.1 0.12718 -2.8512 7.47496e-06
585 1 0.483333 0.05 0.12718 -2.8512 7.47496e-06
695 1 0.5 0 0.193981 -2.85006 3.79552e-06
710 1 0.5 0.1 0.193981 -2.85006 3.79552e-06
711 1 0.533333 0.1 0.12718 -2.8512 7.47496e-06
712 1 0.55 0.05 0.193981 -2.85006 3.79552e-06
714 1 0.533333 0 0.12718 -2.8512 7.47496e-06
716 1 0.583333 0.05 0.12718 -2.8512 7.47496e-06
840 1 0.6 0.1 0.193981 -2.85006 3.79552e-06
843 1 0.6 0 0.193981 -2.85006 3.79552e-06
844 1 0.633333 0 0.12718 -2.8512 7.47496e-06
845 1 0.65 0.05 0.193981 -2.85006 3.79552e-06
863 1 0.633333 0.1 0.12718 -2.8512 7.47496e-06
865 1 0.683333 0.05 0.12718 -2.8512 7.47496e-06
975 1 0.7 0 0.193981 -2.85006 3.79552e-06
990 1 0.7 0.1 0.193981 -2.85006 3.79552e-06
991 1 0.733333 0.1 0.12718 -2.8512 7.47496e-06
992 1 0.75 0.05 0.193981 -2.85006 3.79552e-06
994 1 0.733333 0 0.12718 -2.8512 7.47496e-06
996 1 0.783333 0.05 0.12718 -2.8512 7.47496e-06
1120 1 0.8 0.1 0.193981 -2.85006 3.79552e-06
1123 1 0.8 0 0.193981 -2.85006 3.79552e-06
1124 1 0.833333 0 0.12718 -2.8512 7.47496e-06
1143 1 0.833333 0.1 0.12718 -2.8512 7.47496e-06
1125 1 0.85 0.05 0.193981 -2.85006 3.79552e-06
1145 1 0.883333 0.05 0.12718 -2.8512 7.47496e-06
1255 1 0.9 0 0.193981 -2.85006 3.79552e-06
1270 1 0.9 0.1 0.193981 -2.85006 3.79552e-06
1271 1 0.933333 0.1 0.12718 -2.8512 7.47496e-06
1272 1 0.95 0.05 0.193981 -2.85006 3.79552e-06
1274 1 0.933333 0 0.12718 -2.8512 7.47496e-06
1276 1 0.983333 0.05 0.12718 -2.8512 7.47496e-06
40 1 0 0.2 0.193981 -2.85006 3.79552e-06
41 1 0.0333333 0.2 0.12718 -2.8512 7.47496e-06
42 1 0.05 0.15 0.193981 -2.85006 3.79552e-06
43 1 0.05 0.25 0.193981 -2.85006 3.79552e-06
47 1 0.0833333 0.15 0.12718 -2.8512 7.47496e-06
60 1 0.0833333 0.25 0.12718 -2.8512 7.47496e-06
147 1 0.1 0.2 0.193981 -2.85006 3.79552e-06
153 1 0.15 0.15 0.193981 -2.85006 3.79552e-06
172 1 0.15 0.25 0.193981 -2.85006 3.79552e-06
174 1 0.133333 0.2 0.12718 -2.8512 7.47496e-06
176 1 0.183333 0.15 0.12718 -2.8512 7.47496e-06
177 1 0.183333 0.25 0.12718 -2.8512 7.47496e-06
299 1 0.2 0.2 0.193981 -2.85006 3.79552e-06
300 1 0.233333 0.2 0.12718 -2.8512 7.47496e-06
301 1 0.25 0.15 0.193981 -2.85006 3.79552e-06
302 1 0.25 0.25 0.193981 -2.85006 3.79552e-06
306 1 0.283333 0.15 0.12718 -2.8512 7.47496e-06
329 1 0.283333 0.25 0.12718 -2.8512 7.47496e-06
427 1 0.3 0.2 0.193981 -2.85006 3.79552e-06
454 1 0.333333 0.2 0.12718 -2.8512 7.47496e-06
433 1 0.35 0.15 0.193981 -2.85006 3.79552e-06
452 1 0.35 0.25 0.193981 -2.85006 3.79552e-06
456 1 0.383333 0.15 0.12718 -2.8512 7.47496e-06
457 1 0.383333 0.25 0.12718 -2.8512 7.47496e-06
579 1 0.4 0.2 0.193981 -2.85006 3.79552e-06
580 1 0.433333 0.2 0.12718 -2.8512 7.47496e-06
581 1 0.45 0.15 0.193981 -2.85006 3.79552e-06
582 1 0.45 0.25 0.193981 -2.85006 3.79552e-06
586 1 0.483333 0.15 0.12718 -2.8512 7.47496e-06
609 1 0.483333 0.25 0.12718 -2.8512 7.47496e-06
707 1 0.5 0.2 0.193981 -2.85006 3.79552e-06
713 1 0.55 0.15 0.193981 -2.85006 3.79552e-06
732 1 0.55 0.25 0.193981 -2.85006 3.79552e-06
734 1 0.533333 0.2 0.12718 -2.8512 7.47496e-06
736 1 0.583333 0.15 0.12718 -2.8512 7.47496e-06
737 1 0.583333 0.25 0.12718 -2.8512 7.47496e-06
859 1 0.6 0.2 0.193981 -2.85006 3.79552e-06
860 1 0.633333 0.2 0.12718 -2.8512 7.47496e-06
861 1 0.65 0.15 0.193981 -2.85006 3.79552e-06
862 1 0.65 0.25 0.193981 -2.85006 3.79552e-06
866 1 0.683333 0.15 0.12718 -2.8512 7.47496e-06
889 1 0.683333 0.25 0.12718 -2.8512 7.47496e-06
987 1 0.7 0.2 0.193981 -2.85006 3.79552e-06
993 1 0.75 0.15 0.193981 -2.85006 3.79552e-06
1012 1 0.75 0.25 0.193981 -2.85006 3.79552e-06
1014 1 0.733333 0.2 0.12718 -2.8512 7.47496e-06
1016 1 0.783333 0.15 0.12718 -2.8512 7.47496e-06
1017 1 0.783333 0.25 0.12718 -2.8512 7.47496e-06
1139 1 0.8 0.2 0.193981 -2.85006 3.79552e-06
1140 1 0.833333 0.2 0.12718 -2.8512 7.47496e-06
1141 1 0.85 0.15 0.193981 -2.85006 3.79552e-06
1142 1 0.85 0.25 0.193981 -2.85006 3.79552e-06
1146 1 0.883333 0.15 0.12718 -2.8512 7.47496e-06
1169 1 0.883333 0.25 0.12718 -2.8512 7.47496e-06
1267 1 0.9 0.2 0.193981 -2.85006 3.79552e-06
1273 1 0.95 0.15 0.193981 -2.85006 3.79552e-06
1292 1 0.95 0.25 0.193981 -2.85006 3.79552e-06
1294 1 0.933333 0.2 0.12718 -2.8512 7.47496e-06
1296 1 0.983333 0.15 0.12718 -2.8512 7.47496e-06
1297 1 0.983333 0.25 0.12718 -2.8512 7.47496e-06
37 1 0 0.3 0.193981 -2.85006 3.79552e-06
54 1 8.86546e-18 0.4 0.193981 -2.85006 3.79552e-06
55 1 0.0333333 0.4 0.12718 -2.8512 7.47496e-06
56 1 0.05 0.35 0.193981 -2.85006 3.79552e-06
58 1 0.0333333 0.3 0.12718 -2.8512 7.47496e-06
61 1 0.0833333 0.35 0.12718 -2.8512 7.47496e-06
167 1 0.1 0.4 0.193981 -2.85006 3.79552e-06
170 1 0.1 0.3 0.193981 -2.85006 3.79552e-06
171 1 0.133333 0.3 0.12718 -2.8512 7.47496e-06
173 1 0.15 0.35 0.193981 -2.85006 3.79552e-06
201 1 0.133333 0.4 0.12718 -2.8512 7.47496e-06
203 1 0.183333 0.35 0.12718 -2.8512 7.47496e-06
296 1 0.2 0.3 0.193981 -2.85006 3.79552e-06
323 1 0.2 0.4 0.193981 -2.85006 3.79552e-06
324 1 0.233333 0.4 0.12718 -2.8512 7.47496e-06
325 1 0.25 0.35 0.193981 -2.85006 3.79552e-06
327 1 0.233333 0.3 0.12718 -2.8512 7.47496e-06
330 1 0.283333 0.35 0.12718 -2.8512 7.47496e-06
447 1 0.3 0.4 0.193981 -2.85006 3.79552e-06
450 1 0.3 0.3 0.193981 -2.85006 3.79552e-06
451 1 0.333333 0.3 0.12718 -2.8512 7.47496e-06
481 1 0.333333 0.4 0.12718 -2.8512 7.47496e-06
453 1 0.35 0.35 0.193981 -2.85006 3.79552e-06
483 1 0.383333 0.35 0.12718 -2.8512 7.47496e-06
576 1 0.4 0.3 0.193981 -2.85006 3.79552e-06
603 1 0.4 0.4 0.193981 -2.85006 3.79552e-06
604 1 0.433333 0.4 0.12718 -2.8512 7.47496e-06
605 1 0.45 0.35 0.193981 -2.85006 3.79552e-06
607 1 0.433333 0.3 0.12718 -2.8512 7.47496e-06
610 1 0.483333 0.35 0.12718 -2.8512 7.47496e-06
727 1 0.5 0.4 0.193981 -2.85006 3.79552e-06
730 1 0.5 0.3 0.193981 -2.85006 3.79552e-06
731 1 0.533333 0.3 0.12718 -2.8512 7.47496e-06
733 1 0.55 0.35 0.193981 -2.85006 3.79552e-06
761 1 0.533333 0.4 0.12718 -2.8512 7.47496e-06
763 1 0.583333 0.35 0.12718 -2.8512 7.47496e-06
856 1 0.6 0.3 0.193981 -2.85006 3.79552e-06
883 1 0.6 0.4 0.193981 -2.85006 3.79552e-06
884 1 0.633333 0.4 0.12718 -2.8512 7.47496e-06
885 1 0.65 0.35 0.193981 -2.85006 3.79552e-06
887 1 0.633333 0.3 0.12718 -2.8512 7.47496e-06
890 1 0.683333 0.35 0.12718 -2.8512 7.47496e-06
1007 1 0.7 0.4 0.193981 -2.85006 3.79552e-06
1010 1 0.7 0.3 0.193981 -2.85006 3.79552e-06
1011 1 0.733333 0.3 0.12718 -2.8512 7.47496e-06
1013 1 0.75 0.35 0.193981 -2.85006 3.79552e-06
1041 1 0.733333 0.4 0.12718 -2.8512 7.47496e-06
1043 1 0.783333 0.35 0.12718 -2.8512 7.47496e-06
1136 1 0.8 0.3 0.193981 -2.85006 3.79552e-06
1163 1 0.8 0.4 0.193981 -2.85006 3.79552e-06
1164 1 0.833333 0.4 0.12718 -2.8512 7.47496e-06
1167 1 0.833333 0.3 0.12718 -2.8512 7.47496e-06
1165 1 0.85 0.35 0.193981 -2.85006 3.79552e-06
1170 1 0.883333 0.35 0.12718 -2.8512 7.47496e-06
1287 1 0.9 0.4 0.193981 -2.85006 3.79552e-06
1290 1 0.9 0.3 0.193981 -2.85006 3.79552e-06
1291 1 0.933333 0.3 0.12718 -2.8512 7.47496e-06
1293 1 0.95 0.35 0.193981 -2.85006 3.79552e-06
1316 1 0.933333 0.4 0.12718 -2.8512 7.47496e-06
1318 1 0.983333 0.35 0.12718 -2.8512 7.47496e-06
51 1 0 0.5 0.193981 -2.85006 3.79552e-06
57 1 0.05 0.45 0.193981 -2.85006 3.79552e-06
74 1 0.05 0.55 0.193981 -2.85006 3.79552e-06
76 1 0.0333333 0.5 0.12718 -2.8512 7.47496e-06
78 1 0.0833333 0.45 0.12718 -2.8512 7.47496e-06
79 1 0.0833333 0.55 0.12718 -2.8512 7.47496e-06
197 1 0.1 0.5 0.193981 -2.85006 3.79552e-06
198 1 0.133333 0.5 0.12718 -2.8512 7.47496e-06
199 1 0.15 0.45 0.193981 -2.85006 3.79552e-06
200 1 0.15 0.55 0.193981 -2.85006 3.79552e-06
204 1 0.183333 0.45 0.12718 -2.8512 7.47496e-06
227 1 0.183333 0.55 0.12718 -2.8512 7.47496e-06
320 1 0.2 0.5 0.193981 -2.85006 3.79552e-06
326 1 0.25 0.45 0.193981 -2.85006 3.79552e-06
352 1 0.25 0.55 0.193981 -2.85006 3.79552e-06
354 1 0.233333 0.5 0.12718 -2.8512 7.47496e-06
356 1 0.283333 0.45 0.12718 -2.8512 7.47496e-06
357 1 0.283333 0.55 0.12718 -2.8512 7.47496e-06
477 1 0.3 0.5 0.193981 -2.85006 3.79552e-06
478 1 0.333333 0.5 0.12718 -2.8512 7.47496e-06
479 1 0.35 0.45 0.193981 -2.85006 3.79552e-06
480 1 0.35 0.55 0.193981 -2.85006 3.79552e-06
484 1 0.383333 0.45 0.12718 -2.8512 7.47496e-06
507 1 0.383333 0.55 0.12718 -2.8512 7.47496e-06
600 1 0.4 0.5 0.193981 -2.85006 3.79552e-06
606 1 0.45 0.45 0.193981 -2.85006 3.79552e-06
632 1 0.45 0.55 0.193981 -2.85006 3.79552e-06
634 1 0.433333 0.5 0.12718 -2.8512 7.47496e-06
636 1 0.483333 0.45 0.12718 -2.8512 7.47496e-06
637 1 0.483333 0.55 0.12718 -2.8512 7.47496e-06
757 1 0.5 0.5 0.193981 -2.85006 3.79552e-06
758 1 0.533333 0.5 0.12718 -2.8512 7.47496e-06
759 1 0.55 0.45 0.193981 -2.85006 3.79552e-06
760 1 0.55 0.55 0.193981 -2.85006 3.79552e-06
764 1 0.583333 0.45 0.12718 -2.8512 7.47496e-06
787 1 0.583333 0.55 0.12718 -2.8512 7.47496e-06
880 1 0.6 0.5 0.193981 -2.85006 3.79552e-06
886 1 0.65 0.45 0.193981 -2.85006 3.79552e-06
912 1 0.65 0.55 0.193981 -2.85006 3.79552e-06
914 1 0.633333 0.5 0.12718 -2.8512 7.47496e-06
916 1 0.683333 0.45 0.12718 -2.8512 7.47496e-06
917 1 0.683333 0.55 0.12718 -2.8512 7.47496e-06
1037 1 0.7 0.5 0.193981 -2.85006 3.79552e-06
1038 1 0.733333 0.5 0.12718 -2.8512 7.47496e-06
1039 1 0.75 0.45 0.193981 -2.85006 3.79552e-06
1040 1 0.75 0.55 0.193981 -2.85006 3.79552e-06
1044 1 0.783333 0.45 0.12718 -2.8512 7.47496e-06
1067 1 0.783333 0.55 0.12718 -2.8512 7.47496e-06
1160 1 0.8 0.5 0.193981 -2.85006 3.79552e-06
1194 1 0.833333 0.5 0.12718 -2.8512 7.47496e-06
1166 1 0.85 0.45 0.193981 -2.85006 3.79552e-06
1192 1 0.85 0.55 0.193981 -2.85006 3.79552e-06
1196 1 0.883333 0.45 0.12718 -2.8512 7.47496e-06
1197 1 0.883333 0.55 0.12718 -2.8512 7.47496e-06
1312 1 0.9 0.5 0.193981 -2.85006 3.79552e-06
1313 1 0.933333 0.5 0.12718 -2.8512 7.47496e-06
1314 1 0.95 0.45 0.193981 -2.85006 3.79552e-06
1315 1 0.95 0.55 0.193981 -2.85006 3.79552e-06