ITEM: TIMESTEP
113
ITEM: NUMBER OF ATOMS
3200
ITEM: BOX BOUNDS pp pp ss
0.0000000000000000e+00 5.0092067021360698e+01
0.0000000000000000e+00 2.8920668379047399e+01
-1.5671243861047840e-01 3.5533785112952430e+01
ITEM: ATOMS id type xs ys zs c_peratom c_csym
1 1 1.55566e-07 0.0999997 0.000102757 -2.4771 24.5082
2 1 0.0166667 0.0500003 0.0651006 -2.83187 0.00500486
5 1 0.0499998 0.0500001 0.000102707 -2.4771 24.5083
45 1 0.0666666 0.0999999 0.0651005 -2.83187 0.00500467
48 1 0.0666665 1.55797e-07 0.0651004 -2.83187 0.00500691
49 1 0.0999999 1.02684e-07 0.000102648 -2.4771 24.5085
50 1 0.116667 0.0499997 0.0651004 -2.83187 0.00500594
66 1 0.0999998 0.0999999 0.000102784 -2.4771 24.5083
67 1 0.15 0.0500002 0.000102902 -2.4771 24.5082
178 1 0.166667 0.1 0.0651004 -2.83187 0.00500722
179 1 0.2 0.1 0.000102745 -2.4771 24.5082
180 1 0.216667 0.0500002 0.0651005 -2.83187 0.00500567
182 1 0.2 1.84467e-07 0.000102834 -2.4771 24.5082
183 1 0.25 0.0500001 0.000102652 -2.4771 24.5084
304 1 0.266667 0.0999997 0.0651003 -2.83187 0.00500778
307 1 0.266666 3.81866e-09 0.0651004 -2.83187 0.00500591
308 1 0.3 7.36748e-08 0.000102793 -2.4771 24.5083
309 1 0.316666 0.0499998 0.0651005 -2.83187 0.00500489
335 1 0.3 0.0999999 0.000102769 -2.4771 24.5083
336 1 0.35 0.0499997 0.000102932 -2.4771 24.5081
458 1 0.366667 0.0999999 0.0651004 -2.83187 0.00500734
459 1 0.4 0.1 0.000102677 -2.4771 24.5084
460 1 0.416666 0.0500002 0.0651006 -2.83187 0.00500416
462 1 0.4 2.26768e-07 0.00010281 -2.4771 24.5082
463 1 0.45 0.05 0.000102918 -2.4771 24.5081
584 1 0.466667 0.1 0.0651005 -2.83187 0.00500522
588 1 0.5 7.99778e-08 0.000102703 -2.4771 24.5084
615 1 0.5 0.0999999 0.000102856 -2.4771 24.5082
589 1 0.516667 0.0499997 0.0651004 -2.83187 0.00500663
616 1 0.55 0.0500002 0.000102811 -2.4771 24.5083
715 1 0.566667 1.20563e-09 0.0651004 -2.83187 0.00500728
738 1 0.566667 0.1 0.0651005 -2.83187 0.00500564
739 1 0.6 0.1 0.000102936 -2.4771 24.5081
740 1 0.616667 0.0500001 0.0651004 -2.83187 0.00500662
743 1 0.65 0.05 0.000102714 -2.4771 24.5084
864 1 0.666667 0.1 0.0651004 -2.83187 0.00500655
867 1 0.666667 6.82114e-08 0.0651004 -2.83187 0.0050059
869 1 0.716667 0.0499999 0.0651005 -2.83187 0.00500599
895 1 0.7 0.1 0.000102789 -2.4771 24.5083
896 1 0.75 0.0500003 0.000102913 -2.4771 24.5081
1018 1 0.766667 0.1 0.0651004 -2.83187 0.00500726
1019 1 0.8 0.0999999 0.000102839 -2.4771 24.5082
1020 1 0.816667 0.05 0.0651006 -2.83187 0.00500445
1023 1 0.85 0.0499997 0.000102703 -2.4771 24.5083
1144 1 0.866667 0.1 0.0651004 -2.83187 0.00500704
1147 1 0.866667 2.39766e-07 0.0651005 -2.83187 0.00500485
1148 1 0.9 9.55149e-08 0.000102876 -2.4771 24.5082
1149 1 0.916667 0.0499998 0.0651005 -2.83187 0.00500638
1175 1 0.9 0.1 0.000102887 -2.4771 24.5081
4 1 1 3.22296e-08 0.000102859 -2.4771 24.5082
1176 1 0.95 0.0499998 0.00010275 -2.4771 24.5083
1275 1 0.966667 5.9967e-08 0.0651004 -2.83187 0.00500692
1298 1 0.966667 0.0999997 0.0651004 -2.83187 0.00500814
3 1 0.0166665 0.15 0.0651004 -2.83187 0.00500682
7 1 0.0166668 0.25 0.0651004 -2.83187 0.00500656
10 1 0.05 0.15 0.000102797 -2.4771 24.5082
11 1 0.05 0.25 0.000102695 -2.4771 24.5083
62 1 0.0666665 0.2 0.0651004 -2.83187 0.0050076
63 1 0.1 0.2 0.000102803 -2.4771 24.5082
64 1 0.116667 0.15 0.0651004 -2.83187 0.00500611
65 1 0.116667 0.25 0.0651005 -2.83187 0.00500518
68 1 0.15 0.15 0.000102747 -2.4771 24.5084
85 1 0.15 0.25 0.000102918 -2.4771 24.508
175 1 0.166667 0.2 0.0651005 -2.83187 0.00500487
181 1 0.216667 0.15 0.0651005 -2.83187 0.00500531
207 1 0.216667 0.25 0.0651003 -2.83187 0.0050081
209 1 0.2 0.2 0.000102743 -2.4771 24.5083
210 1 0.25 0.15 0.000102709 -2.4771 24.5083
211 1 0.25 0.25 0.000102811 -2.4771 24.5082
331 1 0.266667 0.2 0.0651005 -2.83187 0.00500553
332 1 0.3 0.2 0.000102725 -2.4771 24.5084
333 1 0.316667 0.15 0.0651004 -2.83187 0.00500672
334 1 0.316667 0.25 0.0651004 -2.83187 0.00500637
337 1 0.35 0.15 0.000102815 -2.4771 24.5081
363 1 0.35 0.25 0.000102753 -2.4771 24.5083
455 1 0.366667 0.2 0.0651004 -2.83187 0.00500565
461 1 0.416667 0.15 0.0651004 -2.83187 0.00500586
489 1 0.4 0.2 0.000102644 -2.4771 24.5083
487 1 0.416667 0.25 0.0651004 -2.83187 0.00500628
490 1 0.45 0.15 0.000102636 -2.4771 24.5084
491 1 0.45 0.25 0.000102743 -2.4771 24.5083
611 1 0.466667 0.2 0.0651003 -2.83187 0.00500764
612 1 0.5 0.2 0.000102678 -2.4771 24.5083
613 1 0.516667 0.15 0.0651004 -2.83187 0.00500666
614 1 0.516667 0.25 0.0651005 -2.83187 0.0050052
617 1 0.55 0.15 0.000102689 -2.4771 24.5085
643 1 0.55 0.25 0.00010279 -2.4771 24.5082
735 1 0.566666 0.2 0.0651004 -2.83187 0.00500773
741 1 0.616667 0.15 0.0651004 -2.83187 0.00500677
767 1 0.616667 0.25 0.0651006 -2.83187 0.00500458
769 1 0.6 0.2 0.000102793 -2.4771 24.5083
770 1 0.65 0.15 0.000102682 -2.4771 24.5084
771 1 0.65 0.25 0.000102939 -2.4771 24.5082
891 1 0.666667 0.2 0.0651004 -2.83187 0.00500717
892 1 0.7 0.2 0.000102899 -2.4771 24.5081
893 1 0.716667 0.15 0.0651005 -2.83187 0.0050066
894 1 0.716667 0.25 0.0651005 -2.83187 0.0050049
897 1 0.75 0.15 0.000102869 -2.4771 24.5082
923 1 0.75 0.25 0.000102815 -2.4771 24.5082
1015 1 0.766667 0.2 0.0651004 -2.83187 0.00500643
1021 1 0.816667 0.15 0.0651004 -2.83187 0.00500594
1047 1 0.816667 0.25 0.0651004 -2.83187 0.0050067
1049 1 0.8 0.2 0.000102677 -2.4771 24.5084
1050 1 0.85 0.15 0.000102605 -2.4771 24.5086
1051 1 0.85 0.25 0.000102915 -2.4771 24.5082
1171 1 0.866667 0.2 0.0651005 -2.83187 0.00500572
1172 1 0.9 0.2 0.000102901 -2.4771 24.5082
9 1 1 0.2 0.000102696 -2.4771 24.5083
1173 1 0.916667 0.15 0.0651006 -2.83187 0.00500555
1174 1 0.916667 0.25 0.0651005 -2.83187 0.00500703
1177 1 0.95 0.15 0.000102913 -2.4771 24.5082
1203 1 0.95 0.25 0.000102887 -2.4771 24.5081
1295 1 0.966667 0.2 0.0651005 -2.83187 0.0050047
6 1 6.51908e-08 0.3 0.000102945 -2.4771 24.508
8 1 0.0166665 0.35 0.0651005 -2.83187 0.00500588
16 1 0.05 0.35 0.000102943 -2.4771 24.5081
59 1 0.0666669 0.3 0.0651004 -2.83187 0.00500662
80 1 0.0666666 0.4 0.0651005 -2.83187 0.00500513
81 1 0.0999999 0.4 0.000102771 -2.4771 24.5082
82 1 0.116667 0.35 0.0651003 -2.83187 0.00500759
84 1 0.1 0.3 0.000102553 -2.4771 24.5086
86 1 0.15 0.35 0.000102722 -2.4771 24.5083
202 1 0.166667 0.4 0.0651004 -2.83187 0.00500606
205 1 0.166667 0.3 0.0651005 -2.83187 0.00500531
206 1 0.2 0.3 0.000102823 -2.4771 24.5082
208 1 0.216667 0.35 0.0651005 -2.83187 0.00500561
233 1 0.2 0.4 0.000102869 -2.4771 24.5082
234 1 0.25 0.35 0.000102729 -2.4771 24.5083
328 1 0.266667 0.3 0.0651004 -2.83187 0.00500628
358 1 0.266667 0.4 0.0651004 -2.83187 0.00500686
359 1 0.3 0.4 0.00010272 -2.4771 24.5083
360 1 0.316667 0.35 0.0651004 -2.83187 0.00500606
362 1 0.3 0.3 0.000102727 -2.4771 24.5082
364 1 0.35 0.35 0.000102789 -2.4771 24.5082
482 1 0.366667 0.4 0.0651005 -2.83187 0.00500538
485 1 0.366667 0.3 0.0651003 -2.83187 0.00500743
486 1 0.4 0.3 0.000102748 -2.4771 24.5082
513 1 0.4 0.4 0.00010269 -2.4771 24.5083
488 1 0.416667 0.35 0.0651003 -2.83187 0.00500657
514 1 0.45 0.35 0.000102631 -2.4771 24.5083
608 1 0.466667 0.3 0.0651003 -2.83187 0.00500684
638 1 0.466667 0.4 0.0651004 -2.83187 0.00500676
639 1 0.5 0.4 0.000102855 -2.4771 24.5081
642 1 0.5 0.3 0.000102752 -2.4771 24.5083
640 1 0.516667 0.35 0.0651003 -2.83187 0.00500718
644 1 0.55 0.35 0.000102628 -2.4771 24.5083
762 1 0.566667 0.4 0.0651003 -2.83187 0.00500702
765 1 0.566667 0.3 0.0651005 -2.83187 0.00500521
766 1 0.6 0.3 0.00010289 -2.4771 24.5081
768 1 0.616667 0.35 0.0651004 -2.83187 0.00500677
793 1 0.6 0.4 0.000102755 -2.4771 24.5083
794 1 0.65 0.35 0.000102713 -2.4771 24.5084
888 1 0.666667 0.3 0.0651005 -2.83187 0.00500569
918 1 0.666667 0.4 0.0651005 -2.83187 0.00500564
919 1 0.7 0.4 0.000102855 -2.4771 24.5081
920 1 0.716667 0.35 0.0651005 -2.83187 0.00500661
922 1 0.7 0.3 0.000102768 -2.4771 24.5084
924 1 0.75 0.35 0.000102901 -2.4771 24.5082
1042 1 0.766667 0.4 0.0651005 -2.83187 0.00500538
1045 1 0.766667 0.3 0.0651005 -2.83187 0.00500664
1046 1 0.8 0.3 0.000102796 -2.4771 24.5083
1048 1 0.816667 0.35 0.0651004 -2.83187 0.00500648
1073 1 0.8 0.4 0.000102799 -2.4771 24.5083
1074 1 0.85 0.35 0.000102932 -2.4771 24.5081
1168 1 0.866667 0.3 0.0651005 -2.83187 0.00500567
1198 1 0.866667 0.4 0.0651004 -2.83187 0.00500756
1199 1 0.9 0.4 0.000102791 -2.4771 24.5081
1202 1 0.9 0.3 0.00010274 -2.4771 24.5084
15 1 1 0.4 0.000102638 -2.4771 24.5084
1200 1 0.916667 0.35 0.0651003 -2.83187 0.00500716
1204 1 0.95 0.35 0.000102577 -2.4771 24.5085
1317 1 0.966667 0.4 0.0651005 -2.83187 0.00500431
1320 1 0.966667 0.3 0.0651005 -2.83187 0.00500612
13 1 0.0166665 0.45 0.0651003 -2.83187 0.0050077
14 1 0.0166666 0.55 0.0651004 -2.83187 0.0050064
17 1 0.0500002 0.45 0.000102769 -2.4771 24.5081
22 1 0.0500002 0.55 0.000102876 -2.4771 24.5081
77 1 0.0666668 0.5 0.0651005 -2.83187 0.00500564
83 1 0.116667 0.45 0.0651004 -2.83187 0.00500627
100 1 0.116667 0.55 0.0651005 -2.83187 0.0050054
102 1 0.0999999 0.5 0.000102724 -2.4771 24.5084
103 1 0.15 0.45 0.000102724 -2.4771 24.5083
104 1 0.15 0.55 0.000102841 -2.4771 24.5082
229 1 0.166667 0.5 0.0651004 -2.83187 0.00500704
230 1 0.2 0.5 0.000102799 -2.4771 24.5083
231 1 0.216667 0.45 0.0651005 -2.83187 0.00500602
232 1 0.216667 0.55 0.0651005 -2.83187 0.00500541
250 1 0.25 0.55 0.000102765 -2.4771 24.5083
235 1 0.25 0.45 0.000102774 -2.4771 24.5084
355 1 0.266667 0.5 0.0651004 -2.83187 0.00500651
361 1 0.316667 0.45 0.0651005 -2.83187 0.00500564
380 1 0.316667 0.55 0.0651003 -2.83187 0.00500775
382 1 0.3 0.5 0.000102769 -2.4771 24.5082
383 1 0.35 0.45 0.000102867 -2.4771 24.5082
384 1 0.35 0.55 0.000102809 -2.4771 24.5082
509 1 0.366667 0.5 0.0651005 -2.83187 0.00500462
510 1 0.4 0.5 0.000102726 -2.4771 24.5082
511 1 0.416667 0.45 0.0651003 -2.83187 0.00500784
512 1 0.416667 0.55 0.0651006 -2.83187 0.0050039
515 1 0.45 0.45 0.000102673 -2.4771 24.5083
530 1 0.45 0.55 0.000102713 -2.4771 24.5082
635 1 0.466667 0.5 0.0651003 -2.83187 0.00500738
662 1 0.5 0.5 0.00010274 -2.4771 24.5082
641 1 0.516667 0.45 0.0651005 -2.83187 0.00500512
660 1 0.516667 0.55 0.0651004 -2.83187 0.00500609
663 1 0.55 0.45 0.000102756 -2.4771 24.5084
664 1 0.55 0.55 0.000102836 -2.4771 24.5081
789 1 0.566667 0.5 0.0651004 -2.83187 0.0050057
790 1 0.6 0.5 0.000102817 -2.4771 24.5082
791 1 0.616667 0.45 0.0651004 -2.83187 0.0050071
792 1 0.616667 0.55 0.0651004 -2.83187 0.00500594
795 1 0.65 0.45 0.000102678 -2.4771 24.5083
810 1 0.65 0.55 0.000102627 -2.4771 24.5083
915 1 0.666667 0.5 0.0651003 -2.83187 0.00500705
921 1 0.716667 0.45 0.0651004 -2.83187 0.00500655
940 1 0.716667 0.55 0.0651003 -2.83187 0.00500689
942 1 0.7 0.5 0.000102673 -2.4771 24.5084
944 1 0.75 0.55 0.000102739 -2.4771 24.5083
943 1 0.75 0.45 0.000102883 -2.4771 24.5082
1069 1 0.766667 0.5 0.0651005 -2.83187 0.00500474
1070 1 0.8 0.5 0.000102664 -2.4771 24.5085
1071 1 0.816667 0.45 0.0651004 -2.83187 0.00500614
1072 1 0.816667 0.55 0.0651004 -2.83187 0.00500564
1075 1 0.85 0.45 0.000102724 -2.4771 24.5084
1090 1 0.85 0.55 0.000102801 -2.4771 24.5082
1195 1 0.866667 0.5 0.0651004 -2.83187 0.00500684
1201 1 0.916666 0.45 0.0651005 -2.83187 0.00500478
1222 1 0.9 0.5 0.00010268 -2.4771 24.5083
12 1 1 0.5 0.000102667 -2.4771 24.5085
1220 1 0.916667 0.55 0.0651004 -2.83187 0.00500619
1223 1 0.95 0.45 0.000102893 -2.4771 24.508
1224 1 0.95 0.55 0.000102663 -2.4771 24.5084
1338 1 0.966667 0.5 0.0651004 -2.83187 0.00500702
18 1 1.05497e-07 0.7 0.000102759 -2.4771 24.5083
19 1 0.0166668 0.65 0.0651004 -2.83187 0.00500639
21 1 1.68545e-07 0.6 0.000102915 -2.4771 24.508
23 1 0.0499999 0.65 0.000102579 -2.4771 24.5086
95 1 0.0666665 0.7 0.0651004 -2.83187 0.00500597
98 1 0.0666665 0.6 0.0651004 -2.83187 0.0050063
99 1 0.1 0.6 0.000102843 -2.4771 24.5083
101 1 0.116667 0.65 0.0651004 -2.83187 0.00500732
114 1 0.0999999 0.7 0.000102905 -2.4771 24.5081
115 1 0.15 0.65 0.000102745 -2.4771 24.5084
245 1 0.166667 0.7 0.0651005 -2.83187 0.00500514
226 1 0.166667 0.6 0.0651004 -2.83187 0.00500687
246 1 0.2 0.7 0.000102877 -2.4771 24.5082
247 1 0.216667 0.65 0.0651004 -2.83187 0.00500756
249 1 0.2 0.6 0.00010274 -2.4771 24.5083
251 1 0.25 0.65 0.000102742 -2.4771 24.5083
375 1 0.266667 0.7 0.0651004 -2.83187 0.00500655
378 1 0.266667 0.6 0.0651005 -2.83187 0.005005
379 1 0.3 0.6 0.000102769 -2.4771 24.5083
381 1 0.316666 0.65 0.0651005 -2.83187 0.00500577
394 1 0.3 0.7 0.000102796 -2.4771 24.5083
395 1 0.35 0.65 0.000102853 -2.4771 24.5082
506 1 0.366667 0.6 0.0651004 -2.83187 0.00500754
525 1 0.366667 0.7 0.0651002 -2.83187 0.00500844
526 1 0.4 0.7 0.00010263 -2.4771 24.5084
529 1 0.4 0.6 0.000102862 -2.4771 24.5081
527 1 0.416667 0.65 0.0651004 -2.83187 0.00500663
531 1 0.45 0.65 0.000102868 -2.4771 24.5081
655 1 0.466667 0.7 0.0651005 -2.83187 0.00500586
658 1 0.466667 0.6 0.0651004 -2.83187 0.00500621
659 1 0.5 0.6 0.000102645 -2.4771 24.5084
674 1 0.5 0.7 0.000102738 -2.4771 24.5083
661 1 0.516667 0.65 0.0651004 -2.83187 0.00500533
675 1 0.55 0.65 0.000102723 -2.4771 24.5083
786 1 0.566667 0.6 0.0651003 -2.83187 0.00500686
805 1 0.566667 0.7 0.0651003 -2.83187 0.0050074
806 1 0.6 0.7 0.000102782 -2.4771 24.5084
807 1 0.616667 0.65 0.0651004 -2.83187 0.00500625
809 1 0.6 0.6 0.000102706 -2.4771 24.5081
811 1 0.65 0.65 0.000102743 -2.4771 24.5082
938 1 0.666667 0.6 0.0651004 -2.83187 0.00500601
935 1 0.666667 0.7 0.0651004 -2.83187 0.00500638
939 1 0.7 0.6 0.00010272 -2.4771 24.5082
941 1 0.716667 0.65 0.0651004 -2.83187 0.00500577
954 1 0.7 0.7 0.000102763 -2.4771 24.5083
955 1 0.75 0.65 0.000102654 -2.4771 24.5083
1066 1 0.766667 0.6 0.0651004 -2.83187 0.00500579
1085 1 0.766667 0.7 0.0651003 -2.83187 0.00500747
1086 1 0.8 0.7 0.000102712 -2.4771 24.5083
1087 1 0.816667 0.65 0.0651003 -2.83187 0.00500753
1089 1 0.8 0.6 0.000102703 -2.4771 24.5084
1091 1 0.85 0.65 0.000102799 -2.4771 24.5081
1215 1 0.866667 0.7 0.0651004 -2.83187 0.00500705
1218 1 0.866667 0.6 0.0651005 -2.83187 0.00500528
1219 1 0.9 0.6 0.000102888 -2.4771 24.5081
1234 1 0.9 0.7 0.000102716 -2.4771 24.5083
1221 1 0.916667 0.65 0.0651005 -2.83187 0.00500629
1235 1 0.95 0.65 0.000102831 -2.4771 24.5082
1335 1 0.966667 0.6 0.0651004 -2.83187 0.00500619
1348 1 0.966667 0.7 0.0651004 -2.83187 0.00500716
20 1 0.0166667 0.75 0.0651005 -2.83187 0.00500636
25 1 0.0166666 0.85 0.0651005 -2.83187 0.00500664
28 1 0.0499999 0.75 0.000102732 -2.4771 24.5083
29 1 0.0499999 0.85 0.000102835 -2.4771 24.5082
110 1 0.0666666 0.8 0.0651004 -2.83187 0.00500617
111 1 0.0999998 0.8 0.000102845 -2.4771 24.5082
112 1 0.116667 0.75 0.0651004 -2.83187 0.00500675
113 1 0.116667 0.85 0.0651004 -2.83187 0.00500593
116 1 0.15 0.75 0.000102665 -2.4771 24.5084
119 1 0.15 0.85 0.000102669 -2.4771 24.5083
242 1 0.166667 0.8 0.0651004 -2.83187 0.00500692
248 1 0.216666 0.75 0.0651005 -2.83187 0.0050057
255 1 0.216667 0.85 0.0651003 -2.83187 0.00500801
257 1 0.2 0.8 0.000102684 -2.4771 24.5083
259 1 0.25 0.85 0.000102742 -2.4771 24.5083
258 1 0.25 0.75 0.000102857 -2.4771 24.5081
390 1 0.266667 0.8 0.0651005 -2.83187 0.00500607
391 1 0.3 0.8 0.000102833 -2.4771 24.5083
392 1 0.316667 0.75 0.0651004 -2.83187 0.0050063
393 1 0.316667 0.85 0.0651006 -2.83187 0.00500535
396 1 0.35 0.75 0.000102682 -2.4771 24.5084
399 1 0.35 0.85 0.000102801 -2.4771 24.5082
522 1 0.366667 0.8 0.0651003 -2.83187 0.00500853
535 1 0.416667 0.85 0.0651004 -2.83187 0.0050075
537 1 0.4 0.8 0.000102706 -2.4771 24.5083
528 1 0.416667 0.75 0.0651004 -2.83187 0.00500596
538 1 0.45 0.75 0.00010286 -2.4771 24.5081
539 1 0.45 0.85 0.000102811 -2.4771 24.5082
670 1 0.466667 0.8 0.0651006 -2.83187 0.00500418
671 1 0.5 0.8 0.000102772 -2.4771 24.5082
672 1 0.516667 0.75 0.0651005 -2.83187 0.00500568
673 1 0.516667 0.85 0.0651004 -2.83187 0.00500678
676 1 0.55 0.75 0.000102874 -2.4771 24.5082
679 1 0.55 0.85 0.000102652 -2.4771 24.5084
802 1 0.566667 0.8 0.0651005 -2.83187 0.00500612
808 1 0.616666 0.75 0.0651005 -2.83187 0.00500615
815 1 0.616667 0.85 0.0651005 -2.83187 0.00500649
817 1 0.6 0.8 0.000102961 -2.4771 24.5081
818 1 0.65 0.75 0.000102906 -2.4771 24.5083
819 1 0.65 0.85 0.000102919 -2.4771 24.5081
950 1 0.666667 0.8 0.0651005 -2.83187 0.00500567
951 1 0.7 0.8 0.000102805 -2.4771 24.5082
952 1 0.716667 0.75 0.0651005 -2.83187 0.00500512
953 1 0.716666 0.85 0.0651003 -2.83187 0.00500756
956 1 0.75 0.75 0.00010271 -2.4771 24.5084
959 1 0.75 0.85 0.000102866 -2.4771 24.5081
1082 1 0.766667 0.8 0.0651005 -2.83187 0.00500515
1088 1 0.816667 0.75 0.0651004 -2.83187 0.00500681
1095 1 0.816667 0.85 0.0651005 -2.83187 0.00500511
1097 1 0.8 0.8 0.000102726 -2.4771 24.5084
1098 1 0.85 0.75 0.000102766 -2.4771 24.5083
1099 1 0.85 0.85 0.000102899 -2.4771 24.5081
1230 1 0.866667 0.8 0.0651005 -2.83187 0.00500483
1231 1 0.9 0.8 0.000102713 -2.4771 24.5083
1233 1 0.916667 0.85 0.0651003 -2.83187 0.00500831
27 1 1 0.8 0.000102892 -2.4771 24.5081
1232 1 0.916667 0.75 0.0651004 -2.83187 0.00500669
1236 1 0.95 0.75 0.00010279 -2.4771 24.5081
1239 1 0.95 0.85 0.000102865 -2.4771 24.5081
1345 1 0.966667 0.8 0.0651006 -2.83187 0.00500429
24 1 1.49884e-07 0.9 0.000102824 -2.4771 24.5082
26 1 0.0166667 0.95 0.0651005 -2.83187 0.00500572
30 1 0.0500002 0.95 0.000102721 -2.4771 24.5083
107 1 0.0666668 0.9 0.0651004 -2.83187 0.00500669
117 1 0.116667 0.95 0.0651003 -2.83187 0.00500788
118 1 0.0999998 0.9 0.0001028 -2.4771 24.5082
120 1 0.15 0.95 0.000102719 -2.4771 24.5083
253 1 0.166667 0.9 0.0651005 -2.83187 0.00500499
155 1 0.166667 1 0.0651004 -2.83187 0.00500662
254 1 0.2 0.9 0.000102684 -2.4771 24.5083
256 1 0.216667 0.95 0.0651003 -2.83187 0.00500777
260 1 0.25 0.95 0.000102821 -2.4771 24.5081
387 1 0.266667 0.9 0.0651006 -2.83187 0.00500372
397 1 0.316667 0.95 0.0651004 -2.83187 0.00500678
398 1 0.3 0.9 0.000102956 -2.4771 24.5081
435 1 0.366667 1 0.0651004 -2.83187 0.00500747
400 1 0.35 0.95 0.000102846 -2.4771 24.5083
533 1 0.366667 0.9 0.0651006 -2.83187 0.00500479
534 1 0.4 0.9 0.000102827 -2.4771 24.5083
536 1 0.416667 0.95 0.0651006 -2.83187 0.00500433
587 1 0.466667 1 0.0651004 -2.83187 0.00500701
540 1 0.45 0.95 0.000102869 -2.4771 24.5082
667 1 0.466667 0.9 0.0651004 -2.83187 0.0050064
678 1 0.5 0.9 0.000102687 -2.4771 24.5083
677 1 0.516667 0.95 0.0651005 -2.83187 0.0050055
680 1 0.55 0.95 0.0001028 -2.4771 24.5083
813 1 0.566667 0.9 0.0651003 -2.83187 0.00500697
742 1 0.6 1 0.000102885 -2.4771 24.508
814 1 0.6 0.9 0.000102642 -2.4771 24.5084
816 1 0.616667 0.95 0.0651005 -2.83187 0.00500474
820 1 0.65 0.95 0.000102781 -2.4771 24.5082
947 1 0.666667 0.9 0.0651004 -2.83187 0.00500673
868 1 0.7 1 0.000102777 -2.4771 24.5083
957 1 0.716667 0.95 0.0651004 -2.83187 0.00500682
958 1 0.7 0.9 0.000102616 -2.4771 24.5085
960 1 0.75 0.95 0.000102727 -2.4771 24.5083
995 1 0.766667 1 0.0651004 -2.83187 0.00500674
1022 1 0.8 1 0.000102901 -2.4771 24.5082
1093 1 0.766667 0.9 0.0651005 -2.83187 0.00500613
1094 1 0.8 0.9 0.000102885 -2.4771 24.5082
1096 1 0.816667 0.95 0.0651004 -2.83187 0.00500725
1100 1 0.85 0.95 0.000102658 -2.4771 24.5084
1227 1 0.866667 0.9 0.0651005 -2.83187 0.0050056
1238 1 0.9 0.9 0.000102776 -2.4771 24.5083
1237 1 0.916667 0.95 0.0651004 -2.83187 0.00500649
1240 1 0.95 0.95 0.000102728 -2.4771 24.5083
1350 1 0.966667 0.9 0.0651005 -2.83187 0.00500607
36 1 0.0500001 0.0499997 0.19741 -2.85004 3.80426e-08
44 1 0.0333332 0.0999998 0.131243 -2.8512 2.32422e-06
46 1 0.0833335 0.0499999 0.131243 -2.8512 2.32318e-06
150 1 0.1 0.1 0.19741 -2.85004 3.53231e-08
151 1 0.133333 0.1 0.131243 -2.8512 2.3765e-06
152 1 0.15 0.0499999 0.19741 -2.85004 3.40632e-08
156 1 0.183333 0.05 0.131243 -2.8512 2.34246e-06
280 1 0.2 0.1 0.19741 -2.85004 3.87553e-08
284 1 0.233333 1.11071e-07 0.131243 -2.8512 2.34808e-06
285 1 0.25 0.0499999 0.19741 -2.85004 3.59109e-08
303 1 0.233333 0.1 0.131243 -2.8512 2.33122e-06
305 1 0.283333 0.0500002 0.131243 -2.8512 2.31371e-06
430 1 0.3 0.1 0.19741 -2.85004 3.77961e-08
431 1 0.333333 0.1 0.131243 -2.8512 2.3659e-06
434 1 0.333333 2.24051e-07 0.131243 -2.8512 2.36229e-06
432 1 0.35 0.0500003 0.19741 -2.85004 3.53108e-08
436 1 0.383333 0.0499999 0.131243 -2.8512 2.34119e-06
560 1 0.4 0.0999997 0.19741 -2.85004 3.71429e-08
563 1 0.4 7.79891e-08 0.19741 -2.85004 3.35812e-08
564 1 0.433333 3.30343e-07 0.131243 -2.8512 2.39047e-06
565 1 0.45 0.0499997 0.19741 -2.85003 3.53874e-08
583 1 0.433333 0.1 0.131243 -2.8512 2.33499e-06
585 1 0.483333 0.05 0.131243 -2.8512 2.38931e-06
710 1 0.5 0.0999998 0.19741 -2.85004 3.72988e-08
711 1 0.533333 0.1 0.131243 -2.8512 2.30226e-06
712 1 0.55 0.0499998 0.19741 -2.85004 3.5678e-08
714 1 0.533333 1.10326e-07 0.131243 -2.8512 2.32415e-06
716 1 0.583333 0.0499998 0.131243 -2.8512 2.35106e-06
840 1 0.6 0.1 0.19741 -2.85004 3.70052e-08
844 1 0.633333 2.24635e-08 0.131243 -2.8512 2.35871e-06
845 1 0.65 0.0499997 0.19741 -2.85004 4.2407e-08
863 1 0.633333 0.1 0.131243 -2.8512 2.33489e-06
865 1 0.683333 0.0500003 0.131243 -2.8512 2.37948e-06
975 1 0.7 1.52396e-07 0.19741 -2.85004 3.67775e-08
990 1 0.7 0.0999998 0.19741 -2.85003 3.44926e-08
991 1 0.733333 0.1 0.131243 -2.8512 2.34016e-06
992 1 0.75 0.0499997 0.19741 -2.85004 3.96699e-08
994 1 0.733333 7.73562e-08 0.131243 -2.8512 2.34699e-06
996 1 0.783333 0.0499999 0.131243 -2.8512 2.35938e-06
1120 1 0.8 0.1 0.19741 -2.85004 3.50222e-08
1123 1 0.8 3.23937e-07 0.19741 -2.85004 3.91688e-08
1143 1 0.833333 0.1 0.131243 -2.8512 2.32285e-06
1125 1 0.85 0.05 0.19741 -2.85004 3.53471e-08
1145 1 0.883333 0.0500002 0.131243 -2.8512 2.36348e-06
1255 1 0.9 1.558e-07 0.19741 -2.85004 3.13896e-08
1270 1 0.9 0.1 0.19741 -2.85004 4.06418e-08
31 1 1 0.1 0.19741 -2.85004 3.42326e-08
1271 1 0.933333 0.0999997 0.131243 -2.8512 2.34468e-06
1272 1 0.95 0.0500003 0.19741 -2.85003 4.02767e-08
1274 1 0.933333 1.27782e-07 0.131243 -2.8512 2.35303e-06
1276 1 0.983333 0.0500001 0.131243 -2.8512 2.32648e-06
40 1 1.2092e-07 0.2 0.19741 -2.85004 3.56123e-08
41 1 0.0333335 0.2 0.131243 -2.8512 2.3156e-06
42 1 0.0500001 0.15 0.19741 -2.85004 3.8834e-08
43 1 0.05 0.25 0.19741 -2.85004 3.71306e-08
47 1 0.0833333 0.15 0.131243 -2.8512 2.34997e-06
60 1 0.0833333 0.25 0.131243 -2.8512 2.34646e-06
147 1 0.0999999 0.2 0.19741 -2.85004 3.8919e-08
153 1 0.15 0.15 0.19741 -2.85003 3.23643e-08
172 1 0.15 0.25 0.19741 -2.85004 3.3929e-08
174 1 0.133333 0.2 0.131243 -2.8512 2.37549e-06
176 1 0.183333 0.15 0.131243 -2.8512 2.32002e-06
177 1 0.183333 0.25 0.131243 -2.8512 2.36445e-06
299 1 0.2 0.2 0.19741 -2.85004 3.78961e-08
300 1 0.233333 0.2 0.131243 -2.8512 2.33869e-06
301 1 0.25 0.15 0.19741 -2.85004 3.78713e-08
302 1 0.25 0.25 0.19741 -2.85004 4.03901e-08
306 1 0.283333 0.15 0.131243 -2.8512 2.34783e-06
329 1 0.283333 0.25 0.131243 -2.8512 2.3501e-06
427 1 0.3 0.2 0.19741 -2.85004 3.51993e-08
454 1 0.333333 0.2 0.131243 -2.8512 2.38025e-06
433 1 0.35 0.15 0.19741 -2.85004 3.913e-08
452 1 0.35 0.25 0.19741 -2.85003 3.78432e-08
456 1 0.383333 0.15 0.131243 -2.8512 2.33297e-06
457 1 0.383333 0.25 0.131243 -2.8512 2.34875e-06
579 1 0.4 0.2 0.19741 -2.85004 3.35511e-08
580 1 0.433333 0.2 0.131243 -2.8512 2.34623e-06
581 1 0.45 0.15 0.19741 -2.85004 3.92395e-08
582 1 0.45 0.25 0.19741 -2.85004 4.10563e-08
586 1 0.483333 0.15 0.131243 -2.8512 2.33029e-06
609 1 0.483333 0.25 0.131243 -2.8512 2.34068e-06
707 1 0.5 0.2 0.19741 -2.85004 3.63091e-08
713 1 0.55 0.15 0.19741 -2.85004 4.11524e-08
732 1 0.55 0.25 0.19741 -2.85004 3.86354e-08
734 1 0.533333 0.2 0.131243 -2.8512 2.32719e-06
737 1 0.583333 0.25 0.131243 -2.8512 2.34153e-06
736 1 0.583333 0.15 0.131243 -2.8512 2.35945e-06
859 1 0.6 0.2 0.19741 -2.85004 3.46356e-08
860 1 0.633333 0.2 0.131243 -2.8512 2.3185e-06
861 1 0.65 0.15 0.19741 -2.85004 3.27975e-08
862 1 0.65 0.25 0.19741 -2.85004 3.97823e-08
866 1 0.683333 0.15 0.131243 -2.8512 2.34333e-06
889 1 0.683333 0.25 0.131243 -2.8512 2.36563e-06
987 1 0.7 0.2 0.19741 -2.85004 3.69506e-08
993 1 0.75 0.15 0.19741 -2.85004 4.44357e-08
1012 1 0.75 0.25 0.19741 -2.85004 4.02109e-08
1014 1 0.733333 0.2 0.131243 -2.8512 2.37657e-06
1016 1 0.783333 0.15 0.131243 -2.8512 2.35044e-06
1017 1 0.783333 0.25 0.131243 -2.8512 2.31579e-06
1139 1 0.8 0.2 0.19741 -2.85004 3.14245e-08
1140 1 0.833333 0.2 0.131243 -2.8512 2.35814e-06
1141 1 0.85 0.15 0.19741 -2.85004 3.92748e-08
1142 1 0.85 0.25 0.19741 -2.85004 3.84708e-08
1146 1 0.883333 0.15 0.131243 -2.8512 2.32606e-06
1169 1 0.883333 0.25 0.131243 -2.8512 2.3414e-06
1267 1 0.9 0.2 0.19741 -2.85004 3.36089e-08
1273 1 0.95 0.15 0.19741 -2.85004 3.76005e-08
1292 1 0.95 0.25 0.19741 -2.85004 3.56251e-08
1294 1 0.933333 0.2 0.131243 -2.8512 2.35544e-06
1296 1 0.983333 0.15 0.131243 -2.8512 2.35739e-06
1297 1 0.983333 0.25 0.131243 -2.8512 2.36535e-06
54 1 1.27527e-07 0.4 0.19741 -2.85004 3.61798e-08
55 1 0.0333334 0.4 0.131243 -2.8512 2.34121e-06
56 1 0.0500002 0.35 0.19741 -2.85004 3.82084e-08
58 1 0.0333334 0.3 0.131243 -2.8512 2.38908e-06
61 1 0.0833334 0.35 0.131243 -2.8512 2.34277e-06
167 1 0.0999999 0.4 0.19741 -2.85004 4.19238e-08
170 1 0.1 0.3 0.19741 -2.85004 3.95897e-08
171 1 0.133333 0.3 0.131243 -2.8512 2.34741e-06
173 1 0.15 0.35 0.19741 -2.85004 3.92153e-08
201 1 0.133333 0.4 0.131243 -2.8512 2.36284e-06
203 1 0.183333 0.35 0.131243 -2.8512 2.35722e-06
296 1 0.2 0.3 0.19741 -2.85004 3.17263e-08
323 1 0.2 0.4 0.19741 -2.85003 4.00107e-08
324 1 0.233333 0.4 0.131243 -2.8512 2.35359e-06
325 1 0.25 0.35 0.19741 -2.85004 3.7867e-08
327 1 0.233333 0.3 0.131243 -2.8512 2.33762e-06
330 1 0.283333 0.35 0.131243 -2.8512 2.35893e-06
447 1 0.3 0.4 0.19741 -2.85004 3.75831e-08
450 1 0.3 0.3 0.19741 -2.85004 3.74429e-08
451 1 0.333333 0.3 0.131242 -2.8512 2.37642e-06
481 1 0.333333 0.4 0.131243 -2.8512 2.34006e-06
453 1 0.35 0.35 0.19741 -2.85004 3.57221e-08
483 1 0.383333 0.35 0.131243 -2.8512 2.3636e-06
576 1 0.4 0.3 0.19741 -2.85004 3.48532e-08
603 1 0.4 0.4 0.19741 -2.85004 3.28828e-08
604 1 0.433333 0.4 0.131243 -2.8512 2.33717e-06
605 1 0.45 0.35 0.19741 -2.85004 3.81504e-08
607 1 0.433334 0.3 0.131243 -2.8512 2.31863e-06
610 1 0.483333 0.35 0.131243 -2.8512 2.37497e-06
727 1 0.5 0.4 0.19741 -2.85004 3.16853e-08
730 1 0.5 0.3 0.19741 -2.85004 3.90305e-08
731 1 0.533333 0.3 0.131243 -2.8512 2.36701e-06
733 1 0.55 0.35 0.19741 -2.85003 3.48745e-08
761 1 0.533333 0.4 0.131243 -2.8512 2.35115e-06
763 1 0.583333 0.35 0.131243 -2.8512 2.33815e-06
856 1 0.6 0.3 0.19741 -2.85004 3.62679e-08
883 1 0.6 0.4 0.19741 -2.85004 4.35535e-08
884 1 0.633333 0.4 0.131243 -2.8512 2.33527e-06
885 1 0.65 0.35 0.19741 -2.85003 3.44166e-08
887 1 0.633333 0.3 0.131243 -2.8512 2.39512e-06
890 1 0.683333 0.35 0.131243 -2.8512 2.3183e-06
1007 1 0.7 0.4 0.19741 -2.85004 3.84549e-08
1010 1 0.7 0.3 0.19741 -2.85004 3.25817e-08
1011 1 0.733333 0.3 0.131243 -2.8512 2.33198e-06
1041 1 0.733333 0.4 0.131243 -2.8512 2.35934e-06
1013 1 0.75 0.35 0.19741 -2.85004 3.28924e-08
1043 1 0.783333 0.35 0.131243 -2.8512 2.38571e-06
1136 1 0.8 0.3 0.19741 -2.85004 4.06446e-08
1163 1 0.8 0.4 0.19741 -2.85004 3.59042e-08
1167 1 0.833333 0.3 0.131243 -2.8512 2.37142e-06
1164 1 0.833333 0.4 0.131243 -2.8512 2.34493e-06
1165 1 0.85 0.35 0.19741 -2.85004 3.99503e-08
1170 1 0.883333 0.35 0.131243 -2.8512 2.38126e-06
1287 1 0.9 0.4 0.19741 -2.85004 3.77048e-08
1290 1 0.9 0.3 0.19741 -2.85004 3.413e-08
37 1 1 0.3 0.19741 -2.85004 3.41765e-08
1291 1 0.933333 0.3 0.131243 -2.8512 2.29589e-06
1293 1 0.95 0.35 0.19741 -2.85004 4.16145e-08
1316 1 0.933333 0.4 0.131243 -2.8512 2.36274e-06
1318 1 0.983333 0.35 0.131243 -2.8512 2.32424e-06
51 1 6.51706e-08 0.5 0.19741 -2.85004 3.58654e-08
57 1 0.0500001 0.45 0.19741 -2.85003 3.59062e-08
74 1 0.0499999 0.55 0.19741 -2.85004 3.37232e-08
76 1 0.0333333 0.5 0.131243 -2.8512 2.36377e-06
78 1 0.0833333 0.45 0.131243 -2.8512 2.35619e-06
79 1 0.0833332 0.55 0.131243 -2.8512 2.34322e-06
197 1 0.1 0.5 0.19741 -2.85004 3.69216e-08
198 1 0.133333 0.5 0.131243 -2.8512 2.34569e-06
199 1 0.15 0.45 0.19741 -2.85004 3.6909e-08
200 1 0.15 0.55 0.19741 -2.85004 3.94073e-08
204 1 0.183333 0.45 0.131243 -2.8512 2.3408e-06
227 1 0.183333 0.55 0.131243 -2.8512 2.38332e-06
320 1 0.2 0.5 0.19741 -2.85003 3.33189e-08
326 1 0.25 0.45 0.19741 -2.85004 3.47332e-08
352 1 0.25 0.55 0.19741 -2.85004 4.05519e-08
354 1 0.233333 0.5 0.131243 -2.8512 2.35157e-06
356 1 0.283333 0.45 0.131243 -2.8512 2.31549e-06
357 1 0.283333 0.55 0.131243 -2.8512 2.33079e-06
477 1 0.3 0.5 0.19741 -2.85004 3.41724e-08
478 1 0.333333 0.5 0.131243 -2.8512 2.39534e-06
479 1 0.35 0.45 0.197409 -2.85004 3.22429e-08
480 1 0.35 0.55 0.19741 -2.85004 4.14238e-08
484 1 0.383333 0.45 0.131243 -2.8512 2.33579e-06
507 1 0.383333 0.55 0.131243 -2.8512 2.3331e-06
600 1 0.4 0.5 0.19741 -2.85004 3.67836e-08
606 1 0.45 0.45 0.19741 -2.85004 4.01643e-08
632 1 0.45 0.55 0.19741 -2.85004 3.48183e-08
634 1 0.433333 0.5 0.131243 -2.8512 2.34955e-06
636 1 0.483333 0.45 0.131243 -2.8512 2.3129e-06
637 1 0.483333 0.55 0.131243 -2.8512 2.35925e-06
757 1 0.5 0.5 0.19741 -2.85004 3.80627e-08
758 1 0.533333 0.5 0.131243 -2.8512 2.31979e-06
759 1 0.55 0.45 0.19741 -2.85004 3.73297e-08
760 1 0.55 0.55 0.19741 -2.85003 4.28361e-08
764 1 0.583333 0.45 0.131242 -2.8512 2.41249e-06
787 1 0.583333 0.55 0.131243 -2.8512 2.37702e-06
880 1 0.6 0.5 0.197409 -2.85004 3.30087e-08
886 1 0.65 0.45 0.19741 -2.85004 4.42849e-08
912 1 0.65 0.55 0.19741 -2.85004 4.04077e-08
914 1 0.633333 0.5 0.131243 -2.8512 2.2986e-06
916 1 0.683333 0.45 0.131243 -2.8512 2.34695e-06
917 1 0.683333 0.55 0.131243 -2.8512 2.35703e-06
1037 1 0.7 0.5 0.19741 -2.85004 3.58594e-08
1038 1 0.733333 0.5 0.131243 -2.8512 2.35941e-06
1039 1 0.75 0.45 0.19741 -2.85004 3.28254e-08
1040 1 0.75 0.55 0.19741 -2.85004 3.50882e-08
1044 1 0.783333 0.45 0.131243 -2.8512 2.32712e-06
1067 1 0.783333 0.55 0.131243 -2.8512 2.35199e-06
1160 1 0.8 0.5 0.19741 -2.85004 3.75872e-08
1194 1 0.833333 0.5 0.131243 -2.8512 2.34695e-06
1166 1 0.85 0.45 0.19741 -2.85004 3.83576e-08
1192 1 0.85 0.55 0.19741 -2.85004 3.46534e-08
1196 1 0.883333 0.45 0.131243 -2.8512 2.31281e-06
1197 1 0.883333 0.55 0.131243 -2.8512 2.35448e-06
1312 1 0.9 0.5 0.19741 -2.85004 3.3705e-08
1313 1 0.933333 0.5 0.131243 -2.8512 2.31919e-06
1314 1 0.95 0.45 0.19741 -2.85004 3.40638e-08
1315 1 0.95 0.55 0.19741 -2.85004 3.74261e-08