ITEM: TIMESTEP
110
ITEM: NUMBER OF ATOMS
3200
ITEM: BOX BOUNDS pp pp ss
0.0000000000000000e+00 5.0092067021360698e+01
0.0000000000000000e+00 2.8920668379047399e+01
-1.5671243861047840e-01 3.5533785112952430e+01
ITEM: ATOMS id type xs ys zs c_peratom c_csym
1 1 1.55566e-07 0.0999997 0.000102777 -2.4771 24.5082
2 1 0.0166667 0.0500003 0.0651005 -2.83187 0.00500612
5 1 0.0499998 0.0500001 0.000102872 -2.4771 24.5082
45 1 0.0666666 0.0999999 0.0651006 -2.83187 0.00500478
48 1 0.0666665 1.55797e-07 0.0651004 -2.83187 0.00500635
49 1 0.0999999 1.02684e-07 0.000102645 -2.4771 24.5085
50 1 0.116667 0.0499997 0.0651004 -2.83187 0.00500633
66 1 0.0999998 0.0999999 0.000102725 -2.4771 24.5083
67 1 0.15 0.0500002 0.000102721 -2.4771 24.5084
178 1 0.166667 0.1 0.0651004 -2.83187 0.00500688
179 1 0.2 0.1 0.000102827 -2.4771 24.5081
180 1 0.216667 0.0500002 0.0651005 -2.83187 0.00500512
182 1 0.2 1.84467e-07 0.000102952 -2.4771 24.5081
183 1 0.25 0.0500001 0.000102659 -2.4771 24.5084
304 1 0.266667 0.0999997 0.0651003 -2.83187 0.00500779
307 1 0.266666 3.81866e-09 0.0651003 -2.83187 0.00500746
308 1 0.3 7.36748e-08 0.000102651 -2.4771 24.5084
309 1 0.316666 0.0499998 0.0651005 -2.83187 0.00500532
335 1 0.3 0.0999999 0.00010285 -2.4771 24.5082
336 1 0.35 0.0499997 0.000102834 -2.4771 24.5082
458 1 0.366667 0.0999999 0.0651003 -2.83187 0.00500785
459 1 0.4 0.1 0.000102775 -2.4771 24.5083
460 1 0.416666 0.0500002 0.0651005 -2.83187 0.0050049
462 1 0.4 2.26768e-07 0.000102781 -2.4771 24.5083
463 1 0.45 0.05 0.000102749 -2.4771 24.5083
584 1 0.466667 0.1 0.0651005 -2.83187 0.0050057
588 1 0.5 7.99778e-08 0.000102724 -2.4771 24.5084
615 1 0.5 0.0999999 0.000102869 -2.4771 24.5082
589 1 0.516667 0.0499997 0.0651003 -2.83187 0.00500782
616 1 0.55 0.0500002 0.000102759 -2.4771 24.5083
715 1 0.566667 1.20563e-09 0.0651005 -2.83187 0.00500679
738 1 0.566667 0.1 0.0651005 -2.83187 0.00500646
739 1 0.6 0.1 0.000102922 -2.4771 24.5081
740 1 0.616667 0.0500001 0.0651005 -2.83187 0.00500677
743 1 0.65 0.05 0.000102671 -2.4771 24.5085
864 1 0.666667 0.1 0.0651004 -2.83187 0.00500671
867 1 0.666667 6.82114e-08 0.0651004 -2.83187 0.00500667
869 1 0.716667 0.0499999 0.0651005 -2.83187 0.00500508
895 1 0.7 0.1 0.000102718 -2.4771 24.5084
896 1 0.75 0.0500003 0.000102954 -2.4771 24.5081
1018 1 0.766667 0.1 0.0651004 -2.83187 0.00500737
1019 1 0.8 0.0999999 0.000102866 -2.4771 24.5082
1020 1 0.816667 0.05 0.0651006 -2.83187 0.00500379
1023 1 0.85 0.0499997 0.000102788 -2.4771 24.5082
1144 1 0.866667 0.1 0.0651005 -2.83187 0.00500598
1147 1 0.866667 2.39766e-07 0.0651005 -2.83187 0.00500496
1148 1 0.9 9.55149e-08 0.000102936 -2.4771 24.5082
1149 1 0.916667 0.0499998 0.0651005 -2.83187 0.00500613
1175 1 0.9 0.1 0.000102973 -2.4771 24.508
4 1 1 3.22296e-08 0.000102918 -2.4771 24.5082
1176 1 0.95 0.0499998 0.000102731 -2.4771 24.5083
1275 1 0.966667 5.9967e-08 0.0651004 -2.83187 0.00500698
1298 1 0.966667 0.0999997 0.0651003 -2.83187 0.00500861
3 1 0.0166665 0.15 0.0651004 -2.83187 0.00500642
7 1 0.0166668 0.25 0.0651004 -2.83187 0.0050073
10 1 0.05 0.15 0.000102816 -2.4771 24.5082
11 1 0.05 0.25 0.000102728 -2.4771 24.5083
62 1 0.0666665 0.2 0.0651003 -2.83187 0.00500815
63 1 0.1 0.2 0.000102735 -2.4771 24.5082
64 1 0.116667 0.15 0.0651005 -2.83187 0.00500487
65 1 0.116667 0.25 0.0651004 -2.83187 0.00500579
68 1 0.15 0.15 0.000102804 -2.4771 24.5083
85 1 0.15 0.25 0.000102619 -2.4771 24.5084
175 1 0.166667 0.2 0.0651004 -2.83187 0.00500548
181 1 0.216667 0.15 0.0651004 -2.83187 0.00500675
207 1 0.216667 0.25 0.0651005 -2.83187 0.00500643
209 1 0.2 0.2 0.000102769 -2.4771 24.5082
210 1 0.25 0.15 0.000102658 -2.4771 24.5084
211 1 0.25 0.25 0.000102902 -2.4771 24.5081
331 1 0.266667 0.2 0.0651005 -2.83187 0.00500529
332 1 0.3 0.2 0.000102747 -2.4771 24.5084
333 1 0.316667 0.15 0.0651004 -2.83187 0.00500724
334 1 0.316667 0.25 0.0651004 -2.83187 0.00500589
337 1 0.35 0.15 0.000102731 -2.4771 24.5082
363 1 0.35 0.25 0.000102717 -2.4771 24.5083
455 1 0.366667 0.2 0.0651004 -2.83187 0.00500521
461 1 0.416667 0.15 0.0651005 -2.83187 0.00500452
489 1 0.4 0.2 0.000102641 -2.4771 24.5083
487 1 0.416667 0.25 0.0651003 -2.83187 0.00500766
490 1 0.45 0.15 0.000102863 -2.4771 24.5082
491 1 0.45 0.25 0.000102711 -2.4771 24.5083
611 1 0.466667 0.2 0.0651004 -2.83187 0.00500757
612 1 0.5 0.2 0.000102895 -2.4771 24.5081
613 1 0.516667 0.15 0.0651005 -2.83187 0.00500633
614 1 0.516667 0.25 0.0651005 -2.83187 0.00500601
617 1 0.55 0.15 0.000102768 -2.4771 24.5084
643 1 0.55 0.25 0.000102766 -2.4771 24.5082
735 1 0.566666 0.2 0.0651003 -2.83187 0.00500841
741 1 0.616667 0.15 0.0651004 -2.83187 0.0050067
767 1 0.616667 0.25 0.0651004 -2.83187 0.00500692
769 1 0.6 0.2 0.000102616 -2.4771 24.5085
770 1 0.65 0.15 0.000102689 -2.4771 24.5083
771 1 0.65 0.25 0.000102945 -2.4771 24.5082
891 1 0.666667 0.2 0.0651005 -2.83187 0.00500622
892 1 0.7 0.2 0.000102971 -2.4771 24.5081
893 1 0.716667 0.15 0.0651004 -2.83187 0.00500784
894 1 0.716667 0.25 0.0651006 -2.83187 0.00500504
897 1 0.75 0.15 0.000102931 -2.4771 24.5082
923 1 0.75 0.25 0.00010289 -2.4771 24.5082
1015 1 0.766667 0.2 0.0651006 -2.83187 0.00500474
1021 1 0.816667 0.15 0.0651004 -2.83187 0.00500637
1047 1 0.816667 0.25 0.0651004 -2.83187 0.00500712
1049 1 0.8 0.2 0.000102836 -2.4771 24.5082
1050 1 0.85 0.15 0.000102646 -2.4771 24.5086
1051 1 0.85 0.25 0.000102769 -2.4771 24.5084
1171 1 0.866667 0.2 0.0651005 -2.83187 0.00500487
1172 1 0.9 0.2 0.000102908 -2.4771 24.5083
9 1 1 0.2 0.000102674 -2.4771 24.5084
1173 1 0.916667 0.15 0.0651006 -2.83187 0.00500604
1174 1 0.916667 0.25 0.0651005 -2.83187 0.00500711
1177 1 0.95 0.15 0.000102878 -2.4771 24.5082
1203 1 0.95 0.25 0.000102941 -2.4771 24.5081
1295 1 0.966667 0.2 0.0651006 -2.83187 0.00500379
6 1 6.51908e-08 0.3 0.000102928 -2.4771 24.5081
8 1 0.0166665 0.35 0.0651005 -2.83187 0.00500596
16 1 0.05 0.35 0.000102823 -2.4771 24.5082
59 1 0.0666669 0.3 0.0651005 -2.83187 0.00500498
80 1 0.0666666 0.4 0.0651004 -2.83187 0.00500633
81 1 0.0999999 0.4 0.000102743 -2.4771 24.5082
82 1 0.116667 0.35 0.0651003 -2.83187 0.0050067
84 1 0.1 0.3 0.000102616 -2.4771 24.5084
86 1 0.15 0.35 0.000102829 -2.4771 24.5082
202 1 0.166667 0.4 0.0651004 -2.83187 0.00500621
205 1 0.166667 0.3 0.0651004 -2.83187 0.00500607
206 1 0.2 0.3 0.000102887 -2.4771 24.5081
208 1 0.216667 0.35 0.0651006 -2.83187 0.00500495
233 1 0.2 0.4 0.000102973 -2.4771 24.5081
234 1 0.25 0.35 0.000102624 -2.4771 24.5085
328 1 0.266667 0.3 0.0651004 -2.83187 0.00500756
358 1 0.266667 0.4 0.0651005 -2.83187 0.00500489
359 1 0.3 0.4 0.000102835 -2.4771 24.5081
360 1 0.316667 0.35 0.0651004 -2.83187 0.00500559
362 1 0.3 0.3 0.000102842 -2.4771 24.5081
364 1 0.35 0.35 0.000102677 -2.4771 24.5083
482 1 0.366667 0.4 0.0651004 -2.83187 0.00500597
485 1 0.366667 0.3 0.0651003 -2.83187 0.00500724
486 1 0.4 0.3 0.000102635 -2.4771 24.5083
513 1 0.4 0.4 0.000102872 -2.4771 24.5081
488 1 0.416667 0.35 0.0651004 -2.83187 0.00500632
514 1 0.45 0.35 0.000102652 -2.4771 24.5083
608 1 0.466667 0.3 0.0651003 -2.83187 0.00500684
638 1 0.466667 0.4 0.0651003 -2.83187 0.00500781
639 1 0.5 0.4 0.000102913 -2.4771 24.508
642 1 0.5 0.3 0.000102763 -2.4771 24.5083
640 1 0.516667 0.35 0.0651004 -2.83187 0.00500665
644 1 0.55 0.35 0.000102676 -2.4771 24.5083
762 1 0.566667 0.4 0.0651003 -2.83187 0.00500741
765 1 0.566667 0.3 0.0651004 -2.83187 0.0050059
766 1 0.6 0.3 0.000102826 -2.4771 24.5082
768 1 0.616667 0.35 0.0651004 -2.83187 0.00500631
793 1 0.6 0.4 0.000102692 -2.4771 24.5084
794 1 0.65 0.35 0.000102878 -2.4771 24.5082
888 1 0.666667 0.3 0.0651006 -2.83187 0.00500443
918 1 0.666667 0.4 0.0651004 -2.83187 0.00500631
919 1 0.7 0.4 0.000102731 -2.4771 24.5083
920 1 0.716667 0.35 0.0651005 -2.83187 0.00500681
922 1 0.7 0.3 0.000102866 -2.4771 24.5083
924 1 0.75 0.35 0.000102872 -2.4771 24.5082
1042 1 0.766667 0.4 0.0651005 -2.83187 0.00500524
1045 1 0.766667 0.3 0.0651005 -2.83187 0.00500708
1046 1 0.8 0.3 0.000102875 -2.4771 24.5082
1048 1 0.816667 0.35 0.0651004 -2.83187 0.00500631
1073 1 0.8 0.4 0.000102951 -2.4771 24.5082
1074 1 0.85 0.35 0.00010281 -2.4771 24.5082
1168 1 0.866667 0.3 0.0651005 -2.83187 0.00500574
1198 1 0.866667 0.4 0.0651004 -2.83187 0.00500767
1199 1 0.9 0.4 0.000102925 -2.4771 24.508
1202 1 0.9 0.3 0.000102847 -2.4771 24.5083
15 1 1 0.4 0.000102576 -2.4771 24.5085
1200 1 0.916667 0.35 0.0651005 -2.83187 0.00500517
1204 1 0.95 0.35 0.000102638 -2.4771 24.5085
1317 1 0.966667 0.4 0.0651004 -2.83187 0.00500552
1320 1 0.966667 0.3 0.0651005 -2.83187 0.00500584
13 1 0.0166665 0.45 0.0651004 -2.83187 0.0050063
14 1 0.0166666 0.55 0.0651003 -2.83187 0.00500824
17 1 0.0500002 0.45 0.000102877 -2.4771 24.508
22 1 0.0500002 0.55 0.00010275 -2.4771 24.5082
77 1 0.0666668 0.5 0.0651005 -2.83187 0.00500494
83 1 0.116667 0.45 0.0651004 -2.83187 0.00500553
100 1 0.116667 0.55 0.0651004 -2.83187 0.00500636
102 1 0.0999999 0.5 0.000102612 -2.4771 24.5085
103 1 0.15 0.45 0.000102788 -2.4771 24.5083
104 1 0.15 0.55 0.000102789 -2.4771 24.5082
229 1 0.166667 0.5 0.0651004 -2.83187 0.00500734
230 1 0.2 0.5 0.00010275 -2.4771 24.5083
231 1 0.216667 0.45 0.0651005 -2.83187 0.00500603
232 1 0.216667 0.55 0.0651004 -2.83187 0.00500595
250 1 0.25 0.55 0.000102621 -2.4771 24.5084
235 1 0.25 0.45 0.000102869 -2.4771 24.5082
355 1 0.266667 0.5 0.0651003 -2.83187 0.0050073
361 1 0.316667 0.45 0.0651004 -2.83187 0.00500563
380 1 0.316667 0.55 0.0651003 -2.83187 0.00500726
382 1 0.3 0.5 0.00010267 -2.4771 24.5083
383 1 0.35 0.45 0.000102563 -2.4771 24.5085
384 1 0.35 0.55 0.000102734 -2.4771 24.5082
509 1 0.366667 0.5 0.0651004 -2.83187 0.00500558
510 1 0.4 0.5 0.000102698 -2.4771 24.5082
511 1 0.416667 0.45 0.0651004 -2.83187 0.00500623
512 1 0.416667 0.55 0.0651005 -2.83187 0.00500397
515 1 0.45 0.45 0.000102599 -2.4771 24.5084
530 1 0.45 0.55 0.000102713 -2.4771 24.5083
635 1 0.466667 0.5 0.0651003 -2.83187 0.00500755
662 1 0.5 0.5 0.000102864 -2.4771 24.5081
641 1 0.516667 0.45 0.0651006 -2.83187 0.00500481
660 1 0.516667 0.55 0.0651005 -2.83187 0.00500526
663 1 0.55 0.45 0.000102689 -2.4771 24.5084
664 1 0.55 0.55 0.000102731 -2.4771 24.5082
789 1 0.566667 0.5 0.0651004 -2.83187 0.00500547
790 1 0.6 0.5 0.000102762 -2.4771 24.5082
791 1 0.616667 0.45 0.0651003 -2.83187 0.00500689
792 1 0.616667 0.55 0.0651004 -2.83187 0.00500624
795 1 0.65 0.45 0.000102667 -2.4771 24.5083
810 1 0.65 0.55 0.000102703 -2.4771 24.5083
915 1 0.666667 0.5 0.0651004 -2.83187 0.00500666
921 1 0.716667 0.45 0.0651004 -2.83187 0.00500638
940 1 0.716667 0.55 0.0651003 -2.83187 0.00500704
942 1 0.7 0.5 0.000102859 -2.4771 24.5082
944 1 0.75 0.55 0.000102784 -2.4771 24.5082
943 1 0.75 0.45 0.000102701 -2.4771 24.5084
1069 1 0.766667 0.5 0.0651004 -2.83187 0.0050058
1070 1 0.8 0.5 0.000102726 -2.4771 24.5084
1071 1 0.816667 0.45 0.0651005 -2.83187 0.00500574
1072 1 0.816667 0.55 0.0651005 -2.83187 0.00500466
1075 1 0.85 0.45 0.000102624 -2.4771 24.5085
1090 1 0.85 0.55 0.000102806 -2.4771 24.5082
1195 1 0.866667 0.5 0.0651003 -2.83187 0.00500729
1201 1 0.916666 0.45 0.0651005 -2.83187 0.00500523
1222 1 0.9 0.5 0.000102659 -2.4771 24.5083
12 1 1 0.5 0.000102816 -2.4771 24.5082
1220 1 0.916667 0.55 0.0651004 -2.83187 0.00500606
1223 1 0.95 0.45 0.000102717 -2.4771 24.5082
1224 1 0.95 0.55 0.000102801 -2.4771 24.5082
1338 1 0.966667 0.5 0.0651004 -2.83187 0.00500654
18 1 1.05497e-07 0.7 0.000102844 -2.4771 24.5084
19 1 0.0166668 0.65 0.0651004 -2.83187 0.00500722
21 1 1.68545e-07 0.6 0.000102828 -2.4771 24.5082
23 1 0.0499999 0.65 0.000102816 -2.4771 24.5083
95 1 0.0666665 0.7 0.0651005 -2.83187 0.00500498
98 1 0.0666665 0.6 0.0651005 -2.83187 0.0050058
99 1 0.1 0.6 0.00010286 -2.4771 24.5082
101 1 0.116667 0.65 0.0651003 -2.83187 0.00500851
114 1 0.0999999 0.7 0.000102671 -2.4771 24.5085
115 1 0.15 0.65 0.000102637 -2.4771 24.5085
245 1 0.166667 0.7 0.0651005 -2.83187 0.00500512
226 1 0.166667 0.6 0.0651004 -2.83187 0.00500594
246 1 0.2 0.7 0.000102827 -2.4771 24.5083
247 1 0.216667 0.65 0.0651004 -2.83187 0.00500795
249 1 0.2 0.6 0.000102707 -2.4771 24.5083
251 1 0.25 0.65 0.000102905 -2.4771 24.5081
375 1 0.266667 0.7 0.0651005 -2.83187 0.00500691
378 1 0.266667 0.6 0.0651005 -2.83187 0.00500529
379 1 0.3 0.6 0.000102935 -2.4771 24.5081
381 1 0.316666 0.65 0.0651005 -2.83187 0.00500528
394 1 0.3 0.7 0.00010291 -2.4771 24.5082
395 1 0.35 0.65 0.000102745 -2.4771 24.5083
506 1 0.366667 0.6 0.0651003 -2.83187 0.00500831
525 1 0.366667 0.7 0.0651002 -2.83187 0.00500921
526 1 0.4 0.7 0.000102626 -2.4771 24.5084
529 1 0.4 0.6 0.000102867 -2.4771 24.5081
527 1 0.416667 0.65 0.0651005 -2.83187 0.00500585
531 1 0.45 0.65 0.000102962 -2.4771 24.5081
655 1 0.466667 0.7 0.0651005 -2.83187 0.00500565
658 1 0.466667 0.6 0.0651004 -2.83187 0.00500621
659 1 0.5 0.6 0.00010273 -2.4771 24.5083
674 1 0.5 0.7 0.00010274 -2.4771 24.5083
661 1 0.516667 0.65 0.0651004 -2.83187 0.00500575
675 1 0.55 0.65 0.000102574 -2.4771 24.5084
786 1 0.566667 0.6 0.0651003 -2.83187 0.00500707
805 1 0.566667 0.7 0.0651004 -2.83187 0.00500622
806 1 0.6 0.7 0.000102948 -2.4771 24.5082
807 1 0.616667 0.65 0.0651005 -2.83187 0.00500532
809 1 0.6 0.6 0.000102534 -2.4771 24.5083
811 1 0.65 0.65 0.000102793 -2.4771 24.5082
938 1 0.666667 0.6 0.0651004 -2.83187 0.00500529
935 1 0.666667 0.7 0.0651003 -2.83187 0.00500744
939 1 0.7 0.6 0.000102638 -2.4771 24.5083
941 1 0.716667 0.65 0.0651004 -2.83187 0.0050056
954 1 0.7 0.7 0.000102764 -2.4771 24.5083
955 1 0.75 0.65 0.000102809 -2.4771 24.5081
1066 1 0.766667 0.6 0.0651004 -2.83187 0.00500623
1085 1 0.766667 0.7 0.0651004 -2.83187 0.00500712
1086 1 0.8 0.7 0.000102707 -2.4771 24.5083
1087 1 0.816667 0.65 0.0651003 -2.83187 0.00500806
1089 1 0.8 0.6 0.000102718 -2.4771 24.5083
1091 1 0.85 0.65 0.000102713 -2.4771 24.5082
1215 1 0.866667 0.7 0.0651004 -2.83187 0.00500629
1218 1 0.866667 0.6 0.0651004 -2.83187 0.00500624
1219 1 0.9 0.6 0.00010266 -2.4771 24.5084
1234 1 0.9 0.7 0.000102708 -2.4771 24.5083
1221 1 0.916667 0.65 0.0651004 -2.83187 0.00500745
1235 1 0.95 0.65 0.000102854 -2.4771 24.5082
1335 1 0.966667 0.6 0.0651005 -2.83187 0.00500574
1348 1 0.966667 0.7 0.0651004 -2.83187 0.00500685
20 1 0.0166667 0.75 0.0651005 -2.83187 0.00500627
25 1 0.0166666 0.85 0.0651005 -2.83187 0.00500616
28 1 0.0499999 0.75 0.000102952 -2.4771 24.5082
29 1 0.0499999 0.85 0.000102808 -2.4771 24.5083
110 1 0.0666666 0.8 0.0651004 -2.83187 0.00500683
111 1 0.0999998 0.8 0.000102784 -2.4771 24.5083
112 1 0.116667 0.75 0.0651005 -2.83187 0.00500592
113 1 0.116667 0.85 0.0651004 -2.83187 0.00500615
116 1 0.15 0.75 0.00010287 -2.4771 24.5082
119 1 0.15 0.85 0.000102606 -2.4771 24.5084
242 1 0.166667 0.8 0.0651003 -2.83187 0.00500735
248 1 0.216666 0.75 0.0651005 -2.83187 0.00500559
255 1 0.216667 0.85 0.0651004 -2.83187 0.0050071
257 1 0.2 0.8 0.000102786 -2.4771 24.5082
259 1 0.25 0.85 0.000102718 -2.4771 24.5084
258 1 0.25 0.75 0.000102841 -2.4771 24.5082
390 1 0.266667 0.8 0.0651006 -2.83187 0.00500537
391 1 0.3 0.8 0.000103034 -2.4771 24.508
392 1 0.316667 0.75 0.0651005 -2.83187 0.00500663
393 1 0.316667 0.85 0.0651006 -2.83187 0.00500538
396 1 0.35 0.75 0.000102678 -2.4771 24.5084
399 1 0.35 0.85 0.000102716 -2.4771 24.5083
522 1 0.366667 0.8 0.0651002 -2.83187 0.00500896
535 1 0.416667 0.85 0.0651004 -2.83187 0.00500709
537 1 0.4 0.8 0.000102596 -2.4771 24.5084
528 1 0.416667 0.75 0.0651004 -2.83187 0.00500614
538 1 0.45 0.75 0.000102801 -2.4771 24.5082
539 1 0.45 0.85 0.000102882 -2.4771 24.5081
670 1 0.466667 0.8 0.0651007 -2.83187 0.00500274
671 1 0.5 0.8 0.000102888 -2.4771 24.5081
672 1 0.516667 0.75 0.0651005 -2.83187 0.0050056
673 1 0.516667 0.85 0.0651004 -2.83187 0.00500645
676 1 0.55 0.75 0.00010286 -2.4771 24.5082
679 1 0.55 0.85 0.00010272 -2.4771 24.5084
802 1 0.566667 0.8 0.0651004 -2.83187 0.00500737
808 1 0.616666 0.75 0.0651005 -2.83187 0.00500512
815 1 0.616667 0.85 0.0651005 -2.83187 0.00500623
817 1 0.6 0.8 0.000102812 -2.4771 24.5083
818 1 0.65 0.75 0.00010271 -2.4771 24.5085
819 1 0.65 0.85 0.000102924 -2.4771 24.5081
950 1 0.666667 0.8 0.0651004 -2.83187 0.00500694
951 1 0.7 0.8 0.000102912 -2.4771 24.5081
952 1 0.716667 0.75 0.0651005 -2.83187 0.00500527
953 1 0.716666 0.85 0.0651004 -2.83187 0.00500676
956 1 0.75 0.75 0.00010271 -2.4771 24.5084
959 1 0.75 0.85 0.000102777 -2.4771 24.5082
1082 1 0.766667 0.8 0.0651005 -2.83187 0.00500608
1088 1 0.816667 0.75 0.0651004 -2.83187 0.00500667
1095 1 0.816667 0.85 0.0651004 -2.83187 0.00500609
1097 1 0.8 0.8 0.000102733 -2.4771 24.5084
1098 1 0.85 0.75 0.000102856 -2.4771 24.5082
1099 1 0.85 0.85 0.000102805 -2.4771 24.5081
1230 1 0.866667 0.8 0.0651004 -2.83187 0.00500669
1231 1 0.9 0.8 0.000102776 -2.4771 24.5082
1233 1 0.916667 0.85 0.0651003 -2.83187 0.00500872
27 1 1 0.8 0.000102956 -2.4771 24.508
1232 1 0.916667 0.75 0.0651004 -2.83187 0.00500681
1236 1 0.95 0.75 0.000102939 -2.4771 24.508
1239 1 0.95 0.85 0.000102623 -2.4771 24.5084
1345 1 0.966667 0.8 0.0651005 -2.83187 0.00500599
24 1 1.49884e-07 0.9 0.00010285 -2.4771 24.5082
26 1 0.0166667 0.95 0.0651004 -2.83187 0.00500754
30 1 0.0500002 0.95 0.000102914 -2.4771 24.5081
107 1 0.0666668 0.9 0.0651003 -2.83187 0.00500748
117 1 0.116667 0.95 0.0651003 -2.83187 0.00500814
118 1 0.0999998 0.9 0.000102706 -2.4771 24.5083
120 1 0.15 0.95 0.000102703 -2.4771 24.5084
253 1 0.166667 0.9 0.0651004 -2.83187 0.00500629
155 1 0.166667 1 0.0651005 -2.83187 0.00500578
254 1 0.2 0.9 0.000102786 -2.4771 24.5082
256 1 0.216667 0.95 0.0651005 -2.83187 0.00500645
260 1 0.25 0.95 0.000102774 -2.4771 24.5081
387 1 0.266667 0.9 0.0651005 -2.83187 0.00500526
397 1 0.316667 0.95 0.0651005 -2.83187 0.00500552
398 1 0.3 0.9 0.000102931 -2.4771 24.5081
435 1 0.366667 1 0.0651005 -2.83187 0.00500664
400 1 0.35 0.95 0.000102949 -2.4771 24.5082
533 1 0.366667 0.9 0.0651005 -2.83187 0.00500548
534 1 0.4 0.9 0.000102798 -2.4771 24.5083
536 1 0.416667 0.95 0.0651006 -2.83187 0.00500397
587 1 0.466667 1 0.0651005 -2.83187 0.00500516
540 1 0.45 0.95 0.000102953 -2.4771 24.5082
667 1 0.466667 0.9 0.0651004 -2.83187 0.00500717
678 1 0.5 0.9 0.00010259 -2.4771 24.5084
677 1 0.516667 0.95 0.0651005 -2.83187 0.00500516
680 1 0.55 0.95 0.000102959 -2.4771 24.5081
813 1 0.566667 0.9 0.0651004 -2.83187 0.00500683
742 1 0.6 1 0.00010283 -2.4771 24.5081
814 1 0.6 0.9 0.000102625 -2.4771 24.5085
816 1 0.616667 0.95 0.0651005 -2.83187 0.0050054
820 1 0.65 0.95 0.000102862 -2.4771 24.5081
947 1 0.666667 0.9 0.0651004 -2.83187 0.00500724
868 1 0.7 1 0.000102831 -2.4771 24.5083
957 1 0.716667 0.95 0.0651004 -2.83187 0.00500709
958 1 0.7 0.9 0.000102665 -2.4771 24.5084
960 1 0.75 0.95 0.000102954 -2.4771 24.5081
995 1 0.766667 1 0.0651005 -2.83187 0.0050069
1022 1 0.8 1 0.000102799 -2.4771 24.5083
1093 1 0.766667 0.9 0.0651005 -2.83187 0.00500552
1094 1 0.8 0.9 0.000102808 -2.4771 24.5083
1096 1 0.816667 0.95 0.0651003 -2.83187 0.00500866
1100 1 0.85 0.95 0.000102606 -2.4771 24.5084
1227 1 0.866667 0.9 0.0651005 -2.83187 0.00500431
1238 1 0.9 0.9 0.000102848 -2.4771 24.5082
1237 1 0.916667 0.95 0.0651004 -2.83187 0.00500739
1240 1 0.95 0.95 0.000102927 -2.4771 24.5081
1350 1 0.966667 0.9 0.0651004 -2.83187 0.00500701
36 1 0.0500001 0.0499997 0.19741 -2.85004 3.18158e-08
44 1 0.0333332 0.0999998 0.131243 -2.8512 2.33308e-06
46 1 0.0833335 0.0499999 0.131243 -2.8512 2.33673e-06
150 1 0.1 0.1 0.19741 -2.85004 3.76217e-08
151 1 0.133333 0.1 0.131243 -2.8512 2.34957e-06
152 1 0.15 0.0499999 0.19741 -2.85004 3.3528e-08
156 1 0.183333 0.05 0.131243 -2.8512 2.34508e-06
280 1 0.2 0.1 0.19741 -2.85004 3.70071e-08
284 1 0.233333 1.11071e-07 0.131243 -2.8512 2.30784e-06
285 1 0.25 0.0499999 0.19741 -2.85004 3.67845e-08
303 1 0.233333 0.1 0.131243 -2.8512 2.34696e-06
305 1 0.283333 0.0500002 0.131243 -2.8512 2.33504e-06
430 1 0.3 0.1 0.19741 -2.85004 3.83428e-08
431 1 0.333333 0.1 0.131243 -2.8512 2.39542e-06
434 1 0.333333 2.24051e-07 0.131243 -2.8512 2.34449e-06
432 1 0.35 0.0500003 0.19741 -2.85004 3.62172e-08
436 1 0.383333 0.0499999 0.131243 -2.8512 2.33767e-06
560 1 0.4 0.0999997 0.19741 -2.85004 3.64222e-08
563 1 0.4 7.79891e-08 0.19741 -2.85004 4.13777e-08
564 1 0.433333 3.30343e-07 0.131243 -2.8512 2.34444e-06
565 1 0.45 0.0499997 0.197409 -2.85003 3.28706e-08
583 1 0.433333 0.1 0.131243 -2.8512 2.36515e-06
585 1 0.483333 0.05 0.131243 -2.8512 2.3826e-06
710 1 0.5 0.0999998 0.19741 -2.85004 3.43036e-08
711 1 0.533333 0.1 0.131243 -2.8512 2.32025e-06
712 1 0.55 0.0499998 0.19741 -2.85004 3.37759e-08
714 1 0.533333 1.10326e-07 0.131243 -2.8512 2.29557e-06
716 1 0.583333 0.0499998 0.131243 -2.8512 2.33513e-06
840 1 0.6 0.1 0.19741 -2.85004 3.72358e-08
844 1 0.633333 2.24635e-08 0.131243 -2.8512 2.35652e-06
845 1 0.65 0.0499997 0.19741 -2.85004 4.57685e-08
863 1 0.633333 0.1 0.131243 -2.8512 2.29208e-06
865 1 0.683333 0.0500003 0.131243 -2.8512 2.36545e-06
975 1 0.7 1.52396e-07 0.19741 -2.85004 3.45425e-08
990 1 0.7 0.0999998 0.19741 -2.85004 3.20121e-08
991 1 0.733333 0.1 0.131243 -2.8512 2.36693e-06
992 1 0.75 0.0499997 0.19741 -2.85004 4.07961e-08
994 1 0.733333 7.73562e-08 0.131243 -2.8512 2.33607e-06
996 1 0.783333 0.0499999 0.131243 -2.8512 2.35947e-06
1120 1 0.8 0.1 0.19741 -2.85004 3.82446e-08
1123 1 0.8 3.23937e-07 0.19741 -2.85004 3.73027e-08
1143 1 0.833333 0.1 0.131243 -2.8512 2.31537e-06
1125 1 0.85 0.05 0.19741 -2.85003 3.27029e-08
1145 1 0.883333 0.0500002 0.131243 -2.8512 2.33685e-06
1255 1 0.9 1.558e-07 0.19741 -2.85004 3.49322e-08
1270 1 0.9 0.1 0.19741 -2.85004 3.70791e-08
31 1 1 0.1 0.19741 -2.85004 3.23912e-08
1271 1 0.933333 0.0999997 0.131243 -2.8512 2.31747e-06
1272 1 0.95 0.0500003 0.19741 -2.85003 3.31519e-08
1274 1 0.933333 1.27782e-07 0.131243 -2.8512 2.34453e-06
1276 1 0.983333 0.0500001 0.131243 -2.8512 2.33544e-06
40 1 1.2092e-07 0.2 0.19741 -2.85004 3.44083e-08
41 1 0.0333335 0.2 0.131243 -2.8512 2.32375e-06
42 1 0.0500001 0.15 0.19741 -2.85004 3.88092e-08
43 1 0.05 0.25 0.19741 -2.85004 4.0551e-08
47 1 0.0833333 0.15 0.131243 -2.8512 2.31966e-06
60 1 0.0833333 0.25 0.131243 -2.8512 2.34949e-06
147 1 0.0999999 0.2 0.19741 -2.85004 4.0255e-08
153 1 0.15 0.15 0.19741 -2.85004 3.48328e-08
172 1 0.15 0.25 0.19741 -2.85004 3.82144e-08
174 1 0.133333 0.2 0.131243 -2.8512 2.36815e-06
176 1 0.183333 0.15 0.131243 -2.8512 2.36536e-06
177 1 0.183333 0.25 0.131243 -2.8512 2.37567e-06
299 1 0.2 0.2 0.19741 -2.85004 3.48496e-08
300 1 0.233333 0.2 0.131243 -2.8512 2.35662e-06
301 1 0.25 0.15 0.19741 -2.85004 3.74157e-08
302 1 0.25 0.25 0.19741 -2.85004 3.75886e-08
306 1 0.283333 0.15 0.131243 -2.8512 2.30202e-06
329 1 0.283333 0.25 0.131243 -2.8512 2.37806e-06
427 1 0.3 0.2 0.19741 -2.85004 3.82889e-08
454 1 0.333333 0.2 0.131243 -2.8512 2.35563e-06
433 1 0.35 0.15 0.19741 -2.85004 3.9197e-08
452 1 0.35 0.25 0.19741 -2.85003 3.63751e-08
456 1 0.383333 0.15 0.131243 -2.8512 2.33988e-06
457 1 0.383333 0.25 0.131243 -2.8512 2.33724e-06
579 1 0.4 0.2 0.197409 -2.85004 3.24061e-08
580 1 0.433333 0.2 0.131243 -2.8512 2.33481e-06
581 1 0.45 0.15 0.19741 -2.85004 4.0946e-08
582 1 0.45 0.25 0.19741 -2.85004 3.7995e-08
586 1 0.483333 0.15 0.131243 -2.8512 2.33331e-06
609 1 0.483333 0.25 0.131243 -2.8512 2.35808e-06
707 1 0.5 0.2 0.19741 -2.85004 3.26768e-08
713 1 0.55 0.15 0.19741 -2.85004 4.06447e-08
732 1 0.55 0.25 0.19741 -2.85004 3.58537e-08
734 1 0.533333 0.2 0.131243 -2.8512 2.31065e-06
737 1 0.583333 0.25 0.131243 -2.8512 2.35315e-06
736 1 0.583333 0.15 0.131243 -2.8512 2.3344e-06
859 1 0.6 0.2 0.19741 -2.85004 3.20089e-08
860 1 0.633333 0.2 0.131243 -2.8512 2.30527e-06
861 1 0.65 0.15 0.19741 -2.85004 3.3756e-08
862 1 0.65 0.25 0.19741 -2.85004 3.52726e-08
866 1 0.683333 0.15 0.131243 -2.8512 2.35355e-06
889 1 0.683333 0.25 0.131243 -2.8512 2.32912e-06
987 1 0.7 0.2 0.19741 -2.85004 3.92097e-08
993 1 0.75 0.15 0.19741 -2.85004 3.71033e-08
1012 1 0.75 0.25 0.19741 -2.85004 3.64981e-08
1014 1 0.733333 0.2 0.131243 -2.8512 2.37929e-06
1016 1 0.783333 0.15 0.131243 -2.8512 2.37828e-06
1017 1 0.783333 0.25 0.131243 -2.8512 2.33015e-06
1139 1 0.8 0.2 0.19741 -2.85004 3.37795e-08
1140 1 0.833333 0.2 0.131243 -2.8512 2.33759e-06
1141 1 0.85 0.15 0.19741 -2.85004 3.4663e-08
1142 1 0.85 0.25 0.19741 -2.85004 4.39969e-08
1146 1 0.883333 0.15 0.131243 -2.8512 2.35177e-06
1169 1 0.883333 0.25 0.131243 -2.8512 2.30911e-06
1267 1 0.9 0.2 0.19741 -2.85004 3.36789e-08
1273 1 0.95 0.15 0.19741 -2.85004 4.15242e-08
1292 1 0.95 0.25 0.19741 -2.85004 3.52715e-08
1294 1 0.933333 0.2 0.131243 -2.8512 2.32957e-06
1296 1 0.983333 0.15 0.131243 -2.8512 2.3249e-06
1297 1 0.983333 0.25 0.131243 -2.8512 2.34652e-06
54 1 1.27527e-07 0.4 0.19741 -2.85004 3.43535e-08
55 1 0.0333334 0.4 0.131243 -2.8512 2.34013e-06
56 1 0.0500002 0.35 0.19741 -2.85004 3.86001e-08
58 1 0.0333334 0.3 0.131243 -2.8512 2.34415e-06
61 1 0.0833334 0.35 0.131243 -2.8512 2.37914e-06
167 1 0.0999999 0.4 0.19741 -2.85004 3.78822e-08
170 1 0.1 0.3 0.19741 -2.85004 3.96612e-08
171 1 0.133333 0.3 0.131243 -2.8512 2.34784e-06
173 1 0.15 0.35 0.19741 -2.85004 3.89409e-08
201 1 0.133333 0.4 0.131243 -2.8512 2.37695e-06
203 1 0.183333 0.35 0.131243 -2.8512 2.38169e-06
296 1 0.2 0.3 0.19741 -2.85004 3.65542e-08
323 1 0.2 0.4 0.19741 -2.85004 3.90752e-08
324 1 0.233333 0.4 0.131243 -2.8512 2.33256e-06
325 1 0.25 0.35 0.19741 -2.85004 3.45204e-08
327 1 0.233333 0.3 0.131243 -2.8512 2.31916e-06
330 1 0.283333 0.35 0.131243 -2.8512 2.36908e-06
447 1 0.3 0.4 0.19741 -2.85004 3.43567e-08
450 1 0.3 0.3 0.19741 -2.85004 4.14767e-08
451 1 0.333333 0.3 0.131243 -2.8512 2.36228e-06
481 1 0.333333 0.4 0.131243 -2.8512 2.34705e-06
453 1 0.35 0.35 0.19741 -2.85004 3.44653e-08
483 1 0.383333 0.35 0.131243 -2.8512 2.35969e-06
576 1 0.4 0.3 0.197409 -2.85004 3.46936e-08
603 1 0.4 0.4 0.19741 -2.85004 3.38858e-08
604 1 0.433333 0.4 0.131243 -2.8512 2.32549e-06
605 1 0.45 0.35 0.19741 -2.85004 3.99452e-08
607 1 0.433334 0.3 0.131243 -2.8512 2.29998e-06
610 1 0.483333 0.35 0.131243 -2.8512 2.35753e-06
727 1 0.5 0.4 0.19741 -2.85004 3.07193e-08
730 1 0.5 0.3 0.19741 -2.85004 3.48023e-08
731 1 0.533333 0.3 0.131243 -2.8512 2.34595e-06
733 1 0.55 0.35 0.19741 -2.85003 3.49457e-08
761 1 0.533333 0.4 0.131243 -2.8512 2.33653e-06
763 1 0.583333 0.35 0.131243 -2.8512 2.32427e-06
856 1 0.6 0.3 0.19741 -2.85004 3.74044e-08
883 1 0.6 0.4 0.19741 -2.85004 3.6726e-08
884 1 0.633333 0.4 0.131243 -2.8512 2.3701e-06
885 1 0.65 0.35 0.19741 -2.85003 3.56455e-08
887 1 0.633333 0.3 0.131243 -2.8512 2.39404e-06
890 1 0.683333 0.35 0.131243 -2.8512 2.30079e-06
1007 1 0.7 0.4 0.19741 -2.85004 3.70455e-08
1010 1 0.7 0.3 0.19741 -2.85004 3.46873e-08
1011 1 0.733333 0.3 0.131243 -2.8512 2.34747e-06
1041 1 0.733333 0.4 0.131243 -2.8512 2.34741e-06
1013 1 0.75 0.35 0.19741 -2.85004 3.82938e-08
1043 1 0.783333 0.35 0.131243 -2.8512 2.34932e-06
1136 1 0.8 0.3 0.19741 -2.85004 3.65554e-08
1163 1 0.8 0.4 0.19741 -2.85004 3.5305e-08
1167 1 0.833333 0.3 0.131242 -2.8512 2.42099e-06
1164 1 0.833333 0.4 0.131243 -2.8512 2.35852e-06
1165 1 0.85 0.35 0.19741 -2.85004 3.69739e-08
1170 1 0.883333 0.35 0.131243 -2.8512 2.3422e-06
1287 1 0.9 0.4 0.19741 -2.85004 4.22565e-08
1290 1 0.9 0.3 0.19741 -2.85004 3.11209e-08
37 1 1 0.3 0.19741 -2.85003 4.00763e-08
1291 1 0.933333 0.3 0.131243 -2.8512 2.32022e-06
1293 1 0.95 0.35 0.19741 -2.85004 4.01722e-08
1316 1 0.933333 0.4 0.131243 -2.8512 2.36171e-06
1318 1 0.983333 0.35 0.131243 -2.8512 2.34251e-06
51 1 6.51706e-08 0.5 0.19741 -2.85004 3.74794e-08
57 1 0.0500001 0.45 0.19741 -2.85003 4.16005e-08
74 1 0.0499999 0.55 0.197409 -2.85004 3.15697e-08
76 1 0.0333333 0.5 0.131243 -2.8512 2.35836e-06
78 1 0.0833333 0.45 0.131243 -2.8512 2.35155e-06
79 1 0.0833332 0.55 0.131243 -2.8512 2.34154e-06
197 1 0.1 0.5 0.19741 -2.85004 4.27223e-08
198 1 0.133333 0.5 0.131243 -2.8512 2.34671e-06
199 1 0.15 0.45 0.19741 -2.85004 3.96896e-08
200 1 0.15 0.55 0.19741 -2.85004 4.01669e-08
204 1 0.183333 0.45 0.131243 -2.8512 2.37201e-06
227 1 0.183333 0.55 0.131243 -2.8512 2.3354e-06
320 1 0.2 0.5 0.19741 -2.85003 3.15872e-08
326 1 0.25 0.45 0.19741 -2.85004 3.88358e-08
352 1 0.25 0.55 0.19741 -2.85004 4.006e-08
354 1 0.233333 0.5 0.131243 -2.8512 2.3671e-06
356 1 0.283333 0.45 0.131243 -2.8512 2.2977e-06
357 1 0.283333 0.55 0.131243 -2.8512 2.35852e-06
477 1 0.3 0.5 0.19741 -2.85004 3.33502e-08
478 1 0.333333 0.5 0.131242 -2.8512 2.40441e-06
479 1 0.35 0.45 0.19741 -2.85004 3.7956e-08
480 1 0.35 0.55 0.19741 -2.85004 3.86774e-08
484 1 0.383333 0.45 0.131243 -2.8512 2.31071e-06
507 1 0.383333 0.55 0.131243 -2.8512 2.35225e-06
600 1 0.4 0.5 0.19741 -2.85004 3.33168e-08
606 1 0.45 0.45 0.19741 -2.85004 3.71864e-08
632 1 0.45 0.55 0.19741 -2.85004 3.21123e-08
634 1 0.433333 0.5 0.131243 -2.8512 2.35322e-06
636 1 0.483333 0.45 0.131243 -2.8512 2.31473e-06
637 1 0.483333 0.55 0.131243 -2.8512 2.37754e-06
757 1 0.5 0.5 0.19741 -2.85004 3.98328e-08
758 1 0.533333 0.5 0.131243 -2.8512 2.31083e-06
759 1 0.55 0.45 0.19741 -2.85004 3.90922e-08
760 1 0.55 0.55 0.19741 -2.85003 3.7984e-08
764 1 0.583333 0.45 0.131243 -2.8512 2.38792e-06
787 1 0.583333 0.55 0.131243 -2.8512 2.35448e-06
880 1 0.6 0.5 0.19741 -2.85004 3.79754e-08
886 1 0.65 0.45 0.19741 -2.85004 4.158e-08
912 1 0.65 0.55 0.19741 -2.85004 3.91352e-08
914 1 0.633333 0.5 0.131243 -2.8512 2.2848e-06
916 1 0.683333 0.45 0.131243 -2.8512 2.37886e-06
917 1 0.683333 0.55 0.131243 -2.8512 2.36904e-06
1037 1 0.7 0.5 0.19741 -2.85004 3.77577e-08
1038 1 0.733333 0.5 0.131243 -2.8512 2.36243e-06
1039 1 0.75 0.45 0.19741 -2.85004 3.46388e-08
1040 1 0.75 0.55 0.19741 -2.85004 3.60525e-08
1044 1 0.783333 0.45 0.131243 -2.8512 2.35944e-06
1067 1 0.783333 0.55 0.131243 -2.8512 2.36236e-06
1160 1 0.8 0.5 0.19741 -2.85004 3.73267e-08
1194 1 0.833333 0.5 0.131243 -2.8512 2.32394e-06
1166 1 0.85 0.45 0.19741 -2.85004 4.05812e-08
1192 1 0.85 0.55 0.19741 -2.85004 3.55847e-08
1196 1 0.883333 0.45 0.131243 -2.8512 2.31623e-06
1197 1 0.883333 0.55 0.131243 -2.8512 2.37836e-06
1312 1 0.9 0.5 0.19741 -2.85004 3.7905e-08
1313 1 0.933333 0.5 0.131243 -2.8512 2.31266e-06
1314 1 0.95 0.45 0.19741 -2.85004 3.17734e-08
1315 1 0.95 0.55 0.19741 -2.85004 3.58097e-08