ITEM: TIMESTEP
59
ITEM: NUMBER OF ATOMS
3200
ITEM: BOX BOUNDS pp pp ss
0.0000000000000000e+00 5.0092067021360698e+01
0.0000000000000000e+00 2.8920668379047399e+01
3.8451742731260487e-02 3.5381988531723906e+01
ITEM: ATOMS id type xs ys zs c_peratom c_csym
1 1 0 0.1 -0.00540869 -2.47711 24.5082
2 1 0.0166667 0.05 0.0602265 -2.83186 0.00499947
4 1 0 0 -0.00540869 -2.47711 24.5082
5 1 0.05 0.05 -0.00540869 -2.47711 24.5082
45 1 0.0666667 0.1 0.0602265 -2.83186 0.00499947
48 1 0.0666667 0 0.0602265 -2.83186 0.00499947
49 1 0.1 0 -0.00540869 -2.47711 24.5082
50 1 0.116667 0.05 0.0602265 -2.83186 0.00499947
66 1 0.1 0.1 -0.00540869 -2.47711 24.5082
67 1 0.15 0.05 -0.00540869 -2.47711 24.5082
155 1 0.166667 0 0.0602265 -2.83186 0.00499947
178 1 0.166667 0.1 0.0602265 -2.83186 0.00499947
179 1 0.2 0.1 -0.00540869 -2.47711 24.5082
180 1 0.216667 0.05 0.0602265 -2.83186 0.00499947
182 1 0.2 0 -0.00540869 -2.47711 24.5082
183 1 0.25 0.05 -0.00540869 -2.47711 24.5082
304 1 0.266667 0.1 0.0602265 -2.83186 0.00499947
307 1 0.266667 0 0.0602265 -2.83186 0.00499947
308 1 0.3 0 -0.00540869 -2.47711 24.5082
309 1 0.316667 0.05 0.0602265 -2.83186 0.00499947
335 1 0.3 0.1 -0.00540869 -2.47711 24.5082
336 1 0.35 0.05 -0.00540869 -2.47711 24.5082
435 1 0.366667 0 0.0602265 -2.83186 0.00499947
458 1 0.366667 0.1 0.0602265 -2.83186 0.00499947
459 1 0.4 0.1 -0.00540869 -2.47711 24.5082
460 1 0.416667 0.05 0.0602265 -2.83186 0.00499947
462 1 0.4 0 -0.00540869 -2.47711 24.5082
463 1 0.45 0.05 -0.00540869 -2.47711 24.5082
584 1 0.466667 0.1 0.0602265 -2.83186 0.00499947
587 1 0.466667 0 0.0602265 -2.83186 0.00499947
588 1 0.5 0 -0.00540869 -2.47711 24.5082
615 1 0.5 0.1 -0.00540869 -2.47711 24.5082
589 1 0.516667 0.05 0.0602265 -2.83186 0.00499947
616 1 0.55 0.05 -0.00540869 -2.47711 24.5082
715 1 0.566667 0 0.0602265 -2.83186 0.00499947
738 1 0.566667 0.1 0.0602265 -2.83186 0.00499947
739 1 0.6 0.1 -0.00540869 -2.47711 24.5082
740 1 0.616667 0.05 0.0602265 -2.83186 0.00499947
742 1 0.6 0 -0.00540869 -2.47711 24.5082
743 1 0.65 0.05 -0.00540869 -2.47711 24.5082
864 1 0.666667 0.1 0.0602265 -2.83186 0.00499947
867 1 0.666667 0 0.0602265 -2.83186 0.00499947
868 1 0.7 0 -0.00540869 -2.47711 24.5082
869 1 0.716667 0.05 0.0602265 -2.83186 0.00499947
895 1 0.7 0.1 -0.00540869 -2.47711 24.5082
896 1 0.75 0.05 -0.00540869 -2.47711 24.5082
995 1 0.766667 0 0.0602265 -2.83186 0.00499947
1018 1 0.766667 0.1 0.0602265 -2.83186 0.00499947
1019 1 0.8 0.1 -0.00540869 -2.47711 24.5082
1020 1 0.816667 0.05 0.0602265 -2.83186 0.00499947
1022 1 0.8 0 -0.00540869 -2.47711 24.5082
1023 1 0.85 0.05 -0.00540869 -2.47711 24.5082
1144 1 0.866667 0.1 0.0602265 -2.83186 0.00499947
1147 1 0.866667 0 0.0602265 -2.83186 0.00499947
1148 1 0.9 0 -0.00540869 -2.47711 24.5082
1149 1 0.916667 0.05 0.0602265 -2.83186 0.00499947
1175 1 0.9 0.1 -0.00540869 -2.47711 24.5082
1176 1 0.95 0.05 -0.00540869 -2.47711 24.5082
1275 1 0.966667 0 0.0602265 -2.83186 0.00499947
1298 1 0.966667 0.1 0.0602265 -2.83186 0.00499947
3 1 0.0166667 0.15 0.0602265 -2.83186 0.00499947
7 1 0.0166667 0.25 0.0602265 -2.83186 0.00499947
9 1 0 0.2 -0.00540869 -2.47711 24.5082
10 1 0.05 0.15 -0.00540869 -2.47711 24.5082
11 1 0.05 0.25 -0.00540869 -2.47711 24.5082
62 1 0.0666667 0.2 0.0602265 -2.83186 0.00499947
63 1 0.1 0.2 -0.00540869 -2.47711 24.5082
64 1 0.116667 0.15 0.0602265 -2.83186 0.00499947
65 1 0.116667 0.25 0.0602265 -2.83186 0.00499947
68 1 0.15 0.15 -0.00540869 -2.47711 24.5082
85 1 0.15 0.25 -0.00540869 -2.47711 24.5082
175 1 0.166667 0.2 0.0602265 -2.83186 0.00499947
181 1 0.216667 0.15 0.0602265 -2.83186 0.00499947
207 1 0.216667 0.25 0.0602265 -2.83186 0.00499947
209 1 0.2 0.2 -0.00540869 -2.47711 24.5082
210 1 0.25 0.15 -0.00540869 -2.47711 24.5082
211 1 0.25 0.25 -0.00540869 -2.47711 24.5082
331 1 0.266667 0.2 0.0602265 -2.83186 0.00499947
332 1 0.3 0.2 -0.00540869 -2.47711 24.5082
333 1 0.316667 0.15 0.0602265 -2.83186 0.00499947
334 1 0.316667 0.25 0.0602265 -2.83186 0.00499947
337 1 0.35 0.15 -0.00540869 -2.47711 24.5082
363 1 0.35 0.25 -0.00540869 -2.47711 24.5082
455 1 0.366667 0.2 0.0602265 -2.83186 0.00499947
461 1 0.416667 0.15 0.0602265 -2.83186 0.00499947
487 1 0.416667 0.25 0.0602265 -2.83186 0.00499947
489 1 0.4 0.2 -0.00540869 -2.47711 24.5082
490 1 0.45 0.15 -0.00540869 -2.47711 24.5082
491 1 0.45 0.25 -0.00540869 -2.47711 24.5082
611 1 0.466667 0.2 0.0602265 -2.83186 0.00499947
612 1 0.5 0.2 -0.00540869 -2.47711 24.5082
613 1 0.516667 0.15 0.0602265 -2.83186 0.00499947
614 1 0.516667 0.25 0.0602265 -2.83186 0.00499947
617 1 0.55 0.15 -0.00540869 -2.47711 24.5082
643 1 0.55 0.25 -0.00540869 -2.47711 24.5082
735 1 0.566667 0.2 0.0602265 -2.83186 0.00499947
741 1 0.616667 0.15 0.0602265 -2.83186 0.00499947
767 1 0.616667 0.25 0.0602265 -2.83186 0.00499947
769 1 0.6 0.2 -0.00540869 -2.47711 24.5082
770 1 0.65 0.15 -0.00540869 -2.47711 24.5082
771 1 0.65 0.25 -0.00540869 -2.47711 24.5082
891 1 0.666667 0.2 0.0602265 -2.83186 0.00499947
892 1 0.7 0.2 -0.00540869 -2.47711 24.5082
893 1 0.716667 0.15 0.0602265 -2.83186 0.00499947
894 1 0.716667 0.25 0.0602265 -2.83186 0.00499947
897 1 0.75 0.15 -0.00540869 -2.47711 24.5082
923 1 0.75 0.25 -0.00540869 -2.47711 24.5082
1015 1 0.766667 0.2 0.0602265 -2.83186 0.00499947
1021 1 0.816667 0.15 0.0602265 -2.83186 0.00499947
1047 1 0.816667 0.25 0.0602265 -2.83186 0.00499947
1049 1 0.8 0.2 -0.00540869 -2.47711 24.5082
1050 1 0.85 0.15 -0.00540869 -2.47711 24.5082
1051 1 0.85 0.25 -0.00540869 -2.47711 24.5082
1171 1 0.866667 0.2 0.0602265 -2.83186 0.00499947
1172 1 0.9 0.2 -0.00540869 -2.47711 24.5082
1173 1 0.916667 0.15 0.0602265 -2.83186 0.00499947
1174 1 0.916667 0.25 0.0602265 -2.83186 0.00499947
1177 1 0.95 0.15 -0.00540869 -2.47711 24.5082
1203 1 0.95 0.25 -0.00540869 -2.47711 24.5082
1295 1 0.966667 0.2 0.0602265 -2.83186 0.00499947
6 1 0 0.3 -0.00540869 -2.47711 24.5082
8 1 0.0166667 0.35 0.0602265 -2.83186 0.00499947
15 1 0 0.4 -0.00540869 -2.47711 24.5082
16 1 0.05 0.35 -0.00540869 -2.47711 24.5082
59 1 0.0666667 0.3 0.0602265 -2.83186 0.00499947
80 1 0.0666667 0.4 0.0602265 -2.83186 0.00499947
81 1 0.1 0.4 -0.00540869 -2.47711 24.5082
82 1 0.116667 0.35 0.0602265 -2.83186 0.00499947
84 1 0.1 0.3 -0.00540869 -2.47711 24.5082
86 1 0.15 0.35 -0.00540869 -2.47711 24.5082
202 1 0.166667 0.4 0.0602265 -2.83186 0.00499947
205 1 0.166667 0.3 0.0602265 -2.83186 0.00499947
206 1 0.2 0.3 -0.00540869 -2.47711 24.5082
208 1 0.216667 0.35 0.0602265 -2.83186 0.00499947
233 1 0.2 0.4 -0.00540869 -2.47711 24.5082
234 1 0.25 0.35 -0.00540869 -2.47711 24.5082
328 1 0.266667 0.3 0.0602265 -2.83186 0.00499947
358 1 0.266667 0.4 0.0602265 -2.83186 0.00499947
359 1 0.3 0.4 -0.00540869 -2.47711 24.5082
360 1 0.316667 0.35 0.0602265 -2.83186 0.00499947
362 1 0.3 0.3 -0.00540869 -2.47711 24.5082
364 1 0.35 0.35 -0.00540869 -2.47711 24.5082
482 1 0.366667 0.4 0.0602265 -2.83186 0.00499947
485 1 0.366667 0.3 0.0602265 -2.83186 0.00499947
486 1 0.4 0.3 -0.00540869 -2.47711 24.5082
488 1 0.416667 0.35 0.0602265 -2.83186 0.00499947
513 1 0.4 0.4 -0.00540869 -2.47711 24.5082
514 1 0.45 0.35 -0.00540869 -2.47711 24.5082
608 1 0.466667 0.3 0.0602265 -2.83186 0.00499947
638 1 0.466667 0.4 0.0602265 -2.83186 0.00499947
639 1 0.5 0.4 -0.00540869 -2.47711 24.5082
642 1 0.5 0.3 -0.00540869 -2.47711 24.5082
640 1 0.516667 0.35 0.0602265 -2.83186 0.00499947
644 1 0.55 0.35 -0.00540869 -2.47711 24.5082
762 1 0.566667 0.4 0.0602265 -2.83186 0.00499947
765 1 0.566667 0.3 0.0602265 -2.83186 0.00499947
766 1 0.6 0.3 -0.00540869 -2.47711 24.5082
768 1 0.616667 0.35 0.0602265 -2.83186 0.00499947
793 1 0.6 0.4 -0.00540869 -2.47711 24.5082
794 1 0.65 0.35 -0.00540869 -2.47711 24.5082
888 1 0.666667 0.3 0.0602265 -2.83186 0.00499947
918 1 0.666667 0.4 0.0602265 -2.83186 0.00499947
919 1 0.7 0.4 -0.00540869 -2.47711 24.5082
920 1 0.716667 0.35 0.0602265 -2.83186 0.00499947
922 1 0.7 0.3 -0.00540869 -2.47711 24.5082
924 1 0.75 0.35 -0.00540869 -2.47711 24.5082
1042 1 0.766667 0.4 0.0602265 -2.83186 0.00499947
1045 1 0.766667 0.3 0.0602265 -2.83186 0.00499947
1046 1 0.8 0.3 -0.00540869 -2.47711 24.5082
1048 1 0.816667 0.35 0.0602265 -2.83186 0.00499947
1073 1 0.8 0.4 -0.00540869 -2.47711 24.5082
1074 1 0.85 0.35 -0.00540869 -2.47711 24.5082
1168 1 0.866667 0.3 0.0602265 -2.83186 0.00499947
1198 1 0.866667 0.4 0.0602265 -2.83186 0.00499947
1199 1 0.9 0.4 -0.00540869 -2.47711 24.5082
1200 1 0.916667 0.35 0.0602265 -2.83186 0.00499947
1202 1 0.9 0.3 -0.00540869 -2.47711 24.5082
1204 1 0.95 0.35 -0.00540869 -2.47711 24.5082
1317 1 0.966667 0.4 0.0602265 -2.83186 0.00499947
1320 1 0.966667 0.3 0.0602265 -2.83186 0.00499947
12 1 0 0.5 -0.00540869 -2.47711 24.5082
13 1 0.0166667 0.45 0.0602265 -2.83186 0.00499947
14 1 0.0166667 0.55 0.0602265 -2.83186 0.00499947
17 1 0.05 0.45 -0.00540869 -2.47711 24.5082
22 1 0.05 0.55 -0.00540869 -2.47711 24.5082
77 1 0.0666667 0.5 0.0602265 -2.83186 0.00499947
83 1 0.116667 0.45 0.0602265 -2.83186 0.00499947
100 1 0.116667 0.55 0.0602265 -2.83186 0.00499947
102 1 0.1 0.5 -0.00540869 -2.47711 24.5082
103 1 0.15 0.45 -0.00540869 -2.47711 24.5082
104 1 0.15 0.55 -0.00540869 -2.47711 24.5082
229 1 0.166667 0.5 0.0602265 -2.83186 0.00499947
230 1 0.2 0.5 -0.00540869 -2.47711 24.5082
231 1 0.216667 0.45 0.0602265 -2.83186 0.00499947
232 1 0.216667 0.55 0.0602265 -2.83186 0.00499947
235 1 0.25 0.45 -0.00540869 -2.47711 24.5082
250 1 0.25 0.55 -0.00540869 -2.47711 24.5082
355 1 0.266667 0.5 0.0602265 -2.83186 0.00499947
361 1 0.316667 0.45 0.0602265 -2.83186 0.00499947
380 1 0.316667 0.55 0.0602265 -2.83186 0.00499947
382 1 0.3 0.5 -0.00540869 -2.47711 24.5082
383 1 0.35 0.45 -0.00540869 -2.47711 24.5082
384 1 0.35 0.55 -0.00540869 -2.47711 24.5082
509 1 0.366667 0.5 0.0602265 -2.83186 0.00499947
510 1 0.4 0.5 -0.00540869 -2.47711 24.5082
511 1 0.416667 0.45 0.0602265 -2.83186 0.00499947
512 1 0.416667 0.55 0.0602265 -2.83186 0.00499947
515 1 0.45 0.45 -0.00540869 -2.47711 24.5082
530 1 0.45 0.55 -0.00540869 -2.47711 24.5082
635 1 0.466667 0.5 0.0602265 -2.83186 0.00499947
662 1 0.5 0.5 -0.00540869 -2.47711 24.5082
641 1 0.516667 0.45 0.0602265 -2.83186 0.00499947
660 1 0.516667 0.55 0.0602265 -2.83186 0.00499947
663 1 0.55 0.45 -0.00540869 -2.47711 24.5082
664 1 0.55 0.55 -0.00540869 -2.47711 24.5082
789 1 0.566667 0.5 0.0602265 -2.83186 0.00499947
790 1 0.6 0.5 -0.00540869 -2.47711 24.5082
791 1 0.616667 0.45 0.0602265 -2.83186 0.00499947
792 1 0.616667 0.55 0.0602265 -2.83186 0.00499947
795 1 0.65 0.45 -0.00540869 -2.47711 24.5082
810 1 0.65 0.55 -0.00540869 -2.47711 24.5082
915 1 0.666667 0.5 0.0602265 -2.83186 0.00499947
921 1 0.716667 0.45 0.0602265 -2.83186 0.00499947
940 1 0.716667 0.55 0.0602265 -2.83186 0.00499947
942 1 0.7 0.5 -0.00540869 -2.47711 24.5082
943 1 0.75 0.45 -0.00540869 -2.47711 24.5082
944 1 0.75 0.55 -0.00540869 -2.47711 24.5082
1069 1 0.766667 0.5 0.0602265 -2.83186 0.00499947
1070 1 0.8 0.5 -0.00540869 -2.47711 24.5082
1071 1 0.816667 0.45 0.0602265 -2.83186 0.00499947
1072 1 0.816667 0.55 0.0602265 -2.83186 0.00499947
1075 1 0.85 0.45 -0.00540869 -2.47711 24.5082
1090 1 0.85 0.55 -0.00540869 -2.47711 24.5082
1195 1 0.866667 0.5 0.0602265 -2.83186 0.00499947
1201 1 0.916667 0.45 0.0602265 -2.83186 0.00499947
1220 1 0.916667 0.55 0.0602265 -2.83186 0.00499947
1222 1 0.9 0.5 -0.00540869 -2.47711 24.5082
1223 1 0.95 0.45 -0.00540869 -2.47711 24.5082
1224 1 0.95 0.55 -0.00540869 -2.47711 24.5082
1338 1 0.966667 0.5 0.0602265 -2.83186 0.00499947
18 1 0 0.7 -0.00540869 -2.47711 24.5082
19 1 0.0166667 0.65 0.0602265 -2.83186 0.00499947
21 1 0 0.6 -0.00540869 -2.47711 24.5082
23 1 0.05 0.65 -0.00540869 -2.47711 24.5082
95 1 0.0666667 0.7 0.0602265 -2.83186 0.00499947
98 1 0.0666667 0.6 0.0602265 -2.83186 0.00499947
99 1 0.1 0.6 -0.00540869 -2.47711 24.5082
101 1 0.116667 0.65 0.0602265 -2.83186 0.00499947
114 1 0.1 0.7 -0.00540869 -2.47711 24.5082
115 1 0.15 0.65 -0.00540869 -2.47711 24.5082
226 1 0.166667 0.6 0.0602265 -2.83186 0.00499947
245 1 0.166667 0.7 0.0602265 -2.83186 0.00499947
246 1 0.2 0.7 -0.00540869 -2.47711 24.5082
247 1 0.216667 0.65 0.0602265 -2.83186 0.00499947
249 1 0.2 0.6 -0.00540869 -2.47711 24.5082
251 1 0.25 0.65 -0.00540869 -2.47711 24.5082
375 1 0.266667 0.7 0.0602265 -2.83186 0.00499947
378 1 0.266667 0.6 0.0602265 -2.83186 0.00499947
379 1 0.3 0.6 -0.00540869 -2.47711 24.5082
381 1 0.316667 0.65 0.0602265 -2.83186 0.00499947
394 1 0.3 0.7 -0.00540869 -2.47711 24.5082
395 1 0.35 0.65 -0.00540869 -2.47711 24.5082
506 1 0.366667 0.6 0.0602265 -2.83186 0.00499947
525 1 0.366667 0.7 0.0602265 -2.83186 0.00499947
526 1 0.4 0.7 -0.00540869 -2.47711 24.5082
527 1 0.416667 0.65 0.0602265 -2.83186 0.00499947
529 1 0.4 0.6 -0.00540869 -2.47711 24.5082
531 1 0.45 0.65 -0.00540869 -2.47711 24.5082
655 1 0.466667 0.7 0.0602265 -2.83186 0.00499947
658 1 0.466667 0.6 0.0602265 -2.83186 0.00499947
659 1 0.5 0.6 -0.00540869 -2.47711 24.5082
674 1 0.5 0.7 -0.00540869 -2.47711 24.5082
661 1 0.516667 0.65 0.0602265 -2.83186 0.00499947
675 1 0.55 0.65 -0.00540869 -2.47711 24.5082
786 1 0.566667 0.6 0.0602265 -2.83186 0.00499947
805 1 0.566667 0.7 0.0602265 -2.83186 0.00499947
806 1 0.6 0.7 -0.00540869 -2.47711 24.5082
807 1 0.616667 0.65 0.0602265 -2.83186 0.00499947
809 1 0.6 0.6 -0.00540869 -2.47711 24.5082
811 1 0.65 0.65 -0.00540869 -2.47711 24.5082
935 1 0.666667 0.7 0.0602265 -2.83186 0.00499947
938 1 0.666667 0.6 0.0602265 -2.83186 0.00499947
939 1 0.7 0.6 -0.00540869 -2.47711 24.5082
941 1 0.716667 0.65 0.0602265 -2.83186 0.00499947
954 1 0.7 0.7 -0.00540869 -2.47711 24.5082
955 1 0.75 0.65 -0.00540869 -2.47711 24.5082
1066 1 0.766667 0.6 0.0602265 -2.83186 0.00499947
1085 1 0.766667 0.7 0.0602265 -2.83186 0.00499947
1086 1 0.8 0.7 -0.00540869 -2.47711 24.5082
1087 1 0.816667 0.65 0.0602265 -2.83186 0.00499947
1089 1 0.8 0.6 -0.00540869 -2.47711 24.5082
1091 1 0.85 0.65 -0.00540869 -2.47711 24.5082
1215 1 0.866667 0.7 0.0602265 -2.83186 0.00499947
1218 1 0.866667 0.6 0.0602265 -2.83186 0.00499947
1219 1 0.9 0.6 -0.00540869 -2.47711 24.5082
1221 1 0.916667 0.65 0.0602265 -2.83186 0.00499947
1234 1 0.9 0.7 -0.00540869 -2.47711 24.5082
1235 1 0.95 0.65 -0.00540869 -2.47711 24.5082
1335 1 0.966667 0.6 0.0602265 -2.83186 0.00499947
1348 1 0.966667 0.7 0.0602265 -2.83186 0.00499947
20 1 0.0166667 0.75 0.0602265 -2.83186 0.00499947
25 1 0.0166667 0.85 0.0602265 -2.83186 0.00499947
27 1 0 0.8 -0.00540869 -2.47711 24.5082
28 1 0.05 0.75 -0.00540869 -2.47711 24.5082
29 1 0.05 0.85 -0.00540869 -2.47711 24.5082
110 1 0.0666667 0.8 0.0602265 -2.83186 0.00499947
111 1 0.1 0.8 -0.00540869 -2.47711 24.5082
112 1 0.116667 0.75 0.0602265 -2.83186 0.00499947
113 1 0.116667 0.85 0.0602265 -2.83186 0.00499947
116 1 0.15 0.75 -0.00540869 -2.47711 24.5082
119 1 0.15 0.85 -0.00540869 -2.47711 24.5082
242 1 0.166667 0.8 0.0602265 -2.83186 0.00499947
248 1 0.216667 0.75 0.0602265 -2.83186 0.00499947
255 1 0.216667 0.85 0.0602265 -2.83186 0.00499947
257 1 0.2 0.8 -0.00540869 -2.47711 24.5082
258 1 0.25 0.75 -0.00540869 -2.47711 24.5082
259 1 0.25 0.85 -0.00540869 -2.47711 24.5082
390 1 0.266667 0.8 0.0602265 -2.83186 0.00499947
391 1 0.3 0.8 -0.00540869 -2.47711 24.5082
392 1 0.316667 0.75 0.0602265 -2.83186 0.00499947
393 1 0.316667 0.85 0.0602265 -2.83186 0.00499947
396 1 0.35 0.75 -0.00540869 -2.47711 24.5082
399 1 0.35 0.85 -0.00540869 -2.47711 24.5082
522 1 0.366667 0.8 0.0602265 -2.83186 0.00499947
528 1 0.416667 0.75 0.0602265 -2.83186 0.00499947
535 1 0.416667 0.85 0.0602265 -2.83186 0.00499947
537 1 0.4 0.8 -0.00540869 -2.47711 24.5082
538 1 0.45 0.75 -0.00540869 -2.47711 24.5082
539 1 0.45 0.85 -0.00540869 -2.47711 24.5082
670 1 0.466667 0.8 0.0602265 -2.83186 0.00499947
671 1 0.5 0.8 -0.00540869 -2.47711 24.5082
672 1 0.516667 0.75 0.0602265 -2.83186 0.00499947
673 1 0.516667 0.85 0.0602265 -2.83186 0.00499947
676 1 0.55 0.75 -0.00540869 -2.47711 24.5082
679 1 0.55 0.85 -0.00540869 -2.47711 24.5082
802 1 0.566667 0.8 0.0602265 -2.83186 0.00499947
808 1 0.616667 0.75 0.0602265 -2.83186 0.00499947
815 1 0.616667 0.85 0.0602265 -2.83186 0.00499947
817 1 0.6 0.8 -0.00540869 -2.47711 24.5082
818 1 0.65 0.75 -0.00540869 -2.47711 24.5082
819 1 0.65 0.85 -0.00540869 -2.47711 24.5082
950 1 0.666667 0.8 0.0602265 -2.83186 0.00499947
951 1 0.7 0.8 -0.00540869 -2.47711 24.5082
952 1 0.716667 0.75 0.0602265 -2.83186 0.00499947
953 1 0.716667 0.85 0.0602265 -2.83186 0.00499947
956 1 0.75 0.75 -0.00540869 -2.47711 24.5082
959 1 0.75 0.85 -0.00540869 -2.47711 24.5082
1082 1 0.766667 0.8 0.0602265 -2.83186 0.00499947
1088 1 0.816667 0.75 0.0602265 -2.83186 0.00499947
1095 1 0.816667 0.85 0.0602265 -2.83186 0.00499947
1097 1 0.8 0.8 -0.00540869 -2.47711 24.5082
1098 1 0.85 0.75 -0.00540869 -2.47711 24.5082
1099 1 0.85 0.85 -0.00540869 -2.47711 24.5082
1230 1 0.866667 0.8 0.0602265 -2.83186 0.00499947
1231 1 0.9 0.8 -0.00540869 -2.47711 24.5082
1232 1 0.916667 0.75 0.0602265 -2.83186 0.00499947
1233 1 0.916667 0.85 0.0602265 -2.83186 0.00499947
1236 1 0.95 0.75 -0.00540869 -2.47711 24.5082
1239 1 0.95 0.85 -0.00540869 -2.47711 24.5082
1345 1 0.966667 0.8 0.0602265 -2.83186 0.00499947
24 1 0 0.9 -0.00540869 -2.47711 24.5082
26 1 0.0166667 0.95 0.0602265 -2.83186 0.00499947
30 1 0.05 0.95 -0.00540869 -2.47711 24.5082
107 1 0.0666667 0.9 0.0602265 -2.83186 0.00499947
117 1 0.116667 0.95 0.0602265 -2.83186 0.00499947
118 1 0.1 0.9 -0.00540869 -2.47711 24.5082
120 1 0.15 0.95 -0.00540869 -2.47711 24.5082
253 1 0.166667 0.9 0.0602265 -2.83186 0.00499947
254 1 0.2 0.9 -0.00540869 -2.47711 24.5082
256 1 0.216667 0.95 0.0602265 -2.83186 0.00499947
260 1 0.25 0.95 -0.00540869 -2.47711 24.5082
387 1 0.266667 0.9 0.0602265 -2.83186 0.00499947
397 1 0.316667 0.95 0.0602265 -2.83186 0.00499947
398 1 0.3 0.9 -0.00540869 -2.47711 24.5082
400 1 0.35 0.95 -0.00540869 -2.47711 24.5082
533 1 0.366667 0.9 0.0602265 -2.83186 0.00499947
534 1 0.4 0.9 -0.00540869 -2.47711 24.5082
536 1 0.416667 0.95 0.0602265 -2.83186 0.00499947
540 1 0.45 0.95 -0.00540869 -2.47711 24.5082
667 1 0.466667 0.9 0.0602265 -2.83186 0.00499947
678 1 0.5 0.9 -0.00540869 -2.47711 24.5082
677 1 0.516667 0.95 0.0602265 -2.83186 0.00499947
680 1 0.55 0.95 -0.00540869 -2.47711 24.5082
813 1 0.566667 0.9 0.0602265 -2.83186 0.00499947
814 1 0.6 0.9 -0.00540869 -2.47711 24.5082
816 1 0.616667 0.95 0.0602265 -2.83186 0.00499947
820 1 0.65 0.95 -0.00540869 -2.47711 24.5082
947 1 0.666667 0.9 0.0602265 -2.83186 0.00499947
957 1 0.716667 0.95 0.0602265 -2.83186 0.00499947
958 1 0.7 0.9 -0.00540869 -2.47711 24.5082
960 1 0.75 0.95 -0.00540869 -2.47711 24.5082
1093 1 0.766667 0.9 0.0602265 -2.83186 0.00499947
1094 1 0.8 0.9 -0.00540869 -2.47711 24.5082
1096 1 0.816667 0.95 0.0602265 -2.83186 0.00499947
1100 1 0.85 0.95 -0.00540869 -2.47711 24.5082
1227 1 0.866667 0.9 0.0602265 -2.83186 0.00499947
1237 1 0.916667 0.95 0.0602265 -2.83186 0.00499947
1238 1 0.9 0.9 -0.00540869 -2.47711 24.5082
1240 1 0.95 0.95 -0.00540869 -2.47711 24.5082
1350 1 0.966667 0.9 0.0602265 -2.83186 0.00499947
31 1 0 0.1 0.193833 -2.85004 5.96238e-08
34 1 0 0 0.193833 -2.85004 5.96238e-08
35 1 0.0333333 0 0.127017 -2.8512 2.60176e-06
36 1 0.05 0.05 0.193833 -2.85004 5.96238e-08
44 1 0.0333333 0.1 0.127017 -2.8512 2.60176e-06
46 1 0.0833333 0.05 0.127017 -2.8512 2.60176e-06
135 1 0.1 0 0.193833 -2.85004 5.96238e-08
150 1 0.1 0.1 0.193833 -2.85004 5.96238e-08
151 1 0.133333 0.1 0.127017 -2.8512 2.60176e-06
152 1 0.15 0.05 0.193833 -2.85004 5.96238e-08
154 1 0.133333 0 0.127017 -2.8512 2.60176e-06
156 1 0.183333 0.05 0.127017 -2.8512 2.60176e-06
280 1 0.2 0.1 0.193833 -2.85004 5.96238e-08
283 1 0.2 0 0.193833 -2.85004 5.96238e-08
284 1 0.233333 0 0.127017 -2.8512 2.60176e-06
285 1 0.25 0.05 0.193833 -2.85004 5.96238e-08
303 1 0.233333 0.1 0.127017 -2.8512 2.60176e-06
305 1 0.283333 0.05 0.127017 -2.8512 2.60176e-06
415 1 0.3 0 0.193833 -2.85004 5.96238e-08
430 1 0.3 0.1 0.193833 -2.85004 5.96238e-08
431 1 0.333333 0.1 0.127017 -2.8512 2.60176e-06
434 1 0.333333 0 0.127017 -2.8512 2.60176e-06
432 1 0.35 0.05 0.193833 -2.85004 5.96238e-08
436 1 0.383333 0.05 0.127017 -2.8512 2.60176e-06
560 1 0.4 0.1 0.193833 -2.85004 5.96238e-08
563 1 0.4 0 0.193833 -2.85004 5.96238e-08
564 1 0.433333 0 0.127017 -2.8512 2.60176e-06
565 1 0.45 0.05 0.193833 -2.85004 5.96238e-08
583 1 0.433333 0.1 0.127017 -2.8512 2.60176e-06
585 1 0.483333 0.05 0.127017 -2.8512 2.60176e-06
695 1 0.5 0 0.193833 -2.85004 5.96238e-08
710 1 0.5 0.1 0.193833 -2.85004 5.96238e-08
711 1 0.533333 0.1 0.127017 -2.8512 2.60176e-06
712 1 0.55 0.05 0.193833 -2.85004 5.96238e-08
714 1 0.533333 0 0.127017 -2.8512 2.60176e-06
716 1 0.583333 0.05 0.127017 -2.8512 2.60176e-06
840 1 0.6 0.1 0.193833 -2.85004 5.96238e-08
843 1 0.6 0 0.193833 -2.85004 5.96238e-08
844 1 0.633333 0 0.127017 -2.8512 2.60176e-06
845 1 0.65 0.05 0.193833 -2.85004 5.96238e-08
863 1 0.633333 0.1 0.127017 -2.8512 2.60176e-06
865 1 0.683333 0.05 0.127017 -2.8512 2.60176e-06
975 1 0.7 0 0.193833 -2.85004 5.96238e-08
990 1 0.7 0.1 0.193833 -2.85004 5.96238e-08
991 1 0.733333 0.1 0.127017 -2.8512 2.60176e-06
992 1 0.75 0.05 0.193833 -2.85004 5.96238e-08
994 1 0.733333 0 0.127017 -2.8512 2.60176e-06
996 1 0.783333 0.05 0.127017 -2.8512 2.60176e-06
1120 1 0.8 0.1 0.193833 -2.85004 5.96238e-08
1123 1 0.8 0 0.193833 -2.85004 5.96238e-08
1124 1 0.833333 0 0.127017 -2.8512 2.60176e-06
1143 1 0.833333 0.1 0.127017 -2.8512 2.60176e-06
1125 1 0.85 0.05 0.193833 -2.85004 5.96238e-08
1145 1 0.883333 0.05 0.127017 -2.8512 2.60176e-06
1255 1 0.9 0 0.193833 -2.85004 5.96238e-08
1270 1 0.9 0.1 0.193833 -2.85004 5.96238e-08
1271 1 0.933333 0.1 0.127017 -2.8512 2.60176e-06
1272 1 0.95 0.05 0.193833 -2.85004 5.96238e-08
1274 1 0.933333 0 0.127017 -2.8512 2.60176e-06
1276 1 0.983333 0.05 0.127017 -2.8512 2.60176e-06
40 1 0 0.2 0.193833 -2.85004 5.96238e-08
41 1 0.0333333 0.2 0.127017 -2.8512 2.60176e-06
42 1 0.05 0.15 0.193833 -2.85004 5.96238e-08
43 1 0.05 0.25 0.193833 -2.85004 5.96238e-08
47 1 0.0833333 0.15 0.127017 -2.8512 2.60176e-06
60 1 0.0833333 0.25 0.127017 -2.8512 2.60176e-06
147 1 0.1 0.2 0.193833 -2.85004 5.96238e-08
153 1 0.15 0.15 0.193833 -2.85004 5.96238e-08
172 1 0.15 0.25 0.193833 -2.85004 5.96238e-08
174 1 0.133333 0.2 0.127017 -2.8512 2.60176e-06
176 1 0.183333 0.15 0.127017 -2.8512 2.60176e-06
177 1 0.183333 0.25 0.127017 -2.8512 2.60176e-06
299 1 0.2 0.2 0.193833 -2.85004 5.96238e-08
300 1 0.233333 0.2 0.127017 -2.8512 2.60176e-06
301 1 0.25 0.15 0.193833 -2.85004 5.96238e-08
302 1 0.25 0.25 0.193833 -2.85004 5.96238e-08
306 1 0.283333 0.15 0.127017 -2.8512 2.60176e-06
329 1 0.283333 0.25 0.127017 -2.8512 2.60176e-06
427 1 0.3 0.2 0.193833 -2.85004 5.96238e-08
454 1 0.333333 0.2 0.127017 -2.8512 2.60176e-06
433 1 0.35 0.15 0.193833 -2.85004 5.96238e-08
452 1 0.35 0.25 0.193833 -2.85004 5.96238e-08
456 1 0.383333 0.15 0.127017 -2.8512 2.60176e-06
457 1 0.383333 0.25 0.127017 -2.8512 2.60176e-06
579 1 0.4 0.2 0.193833 -2.85004 5.96238e-08
580 1 0.433333 0.2 0.127017 -2.8512 2.60176e-06
581 1 0.45 0.15 0.193833 -2.85004 5.96238e-08
582 1 0.45 0.25 0.193833 -2.85004 5.96238e-08
586 1 0.483333 0.15 0.127017 -2.8512 2.60176e-06
609 1 0.483333 0.25 0.127017 -2.8512 2.60176e-06
707 1 0.5 0.2 0.193833 -2.85004 5.96238e-08
713 1 0.55 0.15 0.193833 -2.85004 5.96238e-08
732 1 0.55 0.25 0.193833 -2.85004 5.96238e-08
734 1 0.533333 0.2 0.127017 -2.8512 2.60176e-06
736 1 0.583333 0.15 0.127017 -2.8512 2.60176e-06
737 1 0.583333 0.25 0.127017 -2.8512 2.60176e-06
859 1 0.6 0.2 0.193833 -2.85004 5.96238e-08
860 1 0.633333 0.2 0.127017 -2.8512 2.60176e-06
861 1 0.65 0.15 0.193833 -2.85004 5.96238e-08
862 1 0.65 0.25 0.193833 -2.85004 5.96238e-08
866 1 0.683333 0.15 0.127017 -2.8512 2.60176e-06
889 1 0.683333 0.25 0.127017 -2.8512 2.60176e-06
987 1 0.7 0.2 0.193833 -2.85004 5.96238e-08
993 1 0.75 0.15 0.193833 -2.85004 5.96238e-08
1012 1 0.75 0.25 0.193833 -2.85004 5.96238e-08
1014 1 0.733333 0.2 0.127017 -2.8512 2.60176e-06
1016 1 0.783333 0.15 0.127017 -2.8512 2.60176e-06
1017 1 0.783333 0.25 0.127017 -2.8512 2.60176e-06
1139 1 0.8 0.2 0.193833 -2.85004 5.96238e-08
1140 1 0.833333 0.2 0.127017 -2.8512 2.60176e-06
1141 1 0.85 0.15 0.193833 -2.85004 5.96238e-08
1142 1 0.85 0.25 0.193833 -2.85004 5.96238e-08
1146 1 0.883333 0.15 0.127017 -2.8512 2.60176e-06
1169 1 0.883333 0.25 0.127017 -2.8512 2.60176e-06
1267 1 0.9 0.2 0.193833 -2.85004 5.96238e-08
1273 1 0.95 0.15 0.193833 -2.85004 5.96238e-08
1292 1 0.95 0.25 0.193833 -2.85004 5.96238e-08
1294 1 0.933333 0.2 0.127017 -2.8512 2.60176e-06
1296 1 0.983333 0.15 0.127017 -2.8512 2.60176e-06
1297 1 0.983333 0.25 0.127017 -2.8512 2.60176e-06
37 1 0 0.3 0.193833 -2.85004 5.96238e-08
54 1 8.86546e-18 0.4 0.193833 -2.85004 5.96238e-08
55 1 0.0333333 0.4 0.127017 -2.8512 2.60176e-06
56 1 0.05 0.35 0.193833 -2.85004 5.96238e-08
58 1 0.0333333 0.3 0.127017 -2.8512 2.60176e-06
61 1 0.0833333 0.35 0.127017 -2.8512 2.60176e-06
167 1 0.1 0.4 0.193833 -2.85004 5.96238e-08
170 1 0.1 0.3 0.193833 -2.85004 5.96238e-08
171 1 0.133333 0.3 0.127017 -2.8512 2.60176e-06
173 1 0.15 0.35 0.193833 -2.85004 5.96238e-08
201 1 0.133333 0.4 0.127017 -2.8512 2.60176e-06
203 1 0.183333 0.35 0.127017 -2.8512 2.60176e-06
296 1 0.2 0.3 0.193833 -2.85004 5.96238e-08
323 1 0.2 0.4 0.193833 -2.85004 5.96238e-08
324 1 0.233333 0.4 0.127017 -2.8512 2.60176e-06
325 1 0.25 0.35 0.193833 -2.85004 5.96238e-08
327 1 0.233333 0.3 0.127017 -2.8512 2.60176e-06
330 1 0.283333 0.35 0.127017 -2.8512 2.60176e-06
447 1 0.3 0.4 0.193833 -2.85004 5.96238e-08
450 1 0.3 0.3 0.193833 -2.85004 5.96238e-08
451 1 0.333333 0.3 0.127017 -2.8512 2.60176e-06
481 1 0.333333 0.4 0.127017 -2.8512 2.60176e-06
453 1 0.35 0.35 0.193833 -2.85004 5.96238e-08
483 1 0.383333 0.35 0.127017 -2.8512 2.60176e-06
576 1 0.4 0.3 0.193833 -2.85004 5.96238e-08
603 1 0.4 0.4 0.193833 -2.85004 5.96238e-08
604 1 0.433333 0.4 0.127017 -2.8512 2.60176e-06
605 1 0.45 0.35 0.193833 -2.85004 5.96238e-08
607 1 0.433333 0.3 0.127017 -2.8512 2.60176e-06
610 1 0.483333 0.35 0.127017 -2.8512 2.60176e-06
727 1 0.5 0.4 0.193833 -2.85004 5.96238e-08
730 1 0.5 0.3 0.193833 -2.85004 5.96238e-08
731 1 0.533333 0.3 0.127017 -2.8512 2.60176e-06
733 1 0.55 0.35 0.193833 -2.85004 5.96238e-08
761 1 0.533333 0.4 0.127017 -2.8512 2.60176e-06
763 1 0.583333 0.35 0.127017 -2.8512 2.60176e-06
856 1 0.6 0.3 0.193833 -2.85004 5.96238e-08
883 1 0.6 0.4 0.193833 -2.85004 5.96238e-08
884 1 0.633333 0.4 0.127017 -2.8512 2.60176e-06
885 1 0.65 0.35 0.193833 -2.85004 5.96238e-08
887 1 0.633333 0.3 0.127017 -2.8512 2.60176e-06
890 1 0.683333 0.35 0.127017 -2.8512 2.60176e-06
1007 1 0.7 0.4 0.193833 -2.85004 5.96238e-08
1010 1 0.7 0.3 0.193833 -2.85004 5.96238e-08
1011 1 0.733333 0.3 0.127017 -2.8512 2.60176e-06
1013 1 0.75 0.35 0.193833 -2.85004 5.96238e-08
1041 1 0.733333 0.4 0.127017 -2.8512 2.60176e-06
1043 1 0.783333 0.35 0.127017 -2.8512 2.60176e-06
1136 1 0.8 0.3 0.193833 -2.85004 5.96238e-08
1163 1 0.8 0.4 0.193833 -2.85004 5.96238e-08
1164 1 0.833333 0.4 0.127017 -2.8512 2.60176e-06
1167 1 0.833333 0.3 0.127017 -2.8512 2.60176e-06
1165 1 0.85 0.35 0.193833 -2.85004 5.96238e-08
1170 1 0.883333 0.35 0.127017 -2.8512 2.60176e-06
1287 1 0.9 0.4 0.193833 -2.85004 5.96238e-08
1290 1 0.9 0.3 0.193833 -2.85004 5.96238e-08
1291 1 0.933333 0.3 0.127017 -2.8512 2.60176e-06
1293 1 0.95 0.35 0.193833 -2.85004 5.96238e-08
1316 1 0.933333 0.4 0.127017 -2.8512 2.60176e-06
1318 1 0.983333 0.35 0.127017 -2.8512 2.60176e-06
51 1 0 0.5 0.193833 -2.85004 5.96238e-08
57 1 0.05 0.45 0.193833 -2.85004 5.96238e-08
74 1 0.05 0.55 0.193833 -2.85004 5.96238e-08
76 1 0.0333333 0.5 0.127017 -2.8512 2.60176e-06
78 1 0.0833333 0.45 0.127017 -2.8512 2.60176e-06
79 1 0.0833333 0.55 0.127017 -2.8512 2.60176e-06
197 1 0.1 0.5 0.193833 -2.85004 5.96238e-08
198 1 0.133333 0.5 0.127017 -2.8512 2.60176e-06
199 1 0.15 0.45 0.193833 -2.85004 5.96238e-08
200 1 0.15 0.55 0.193833 -2.85004 5.96238e-08
204 1 0.183333 0.45 0.127017 -2.8512 2.60176e-06
227 1 0.183333 0.55 0.127017 -2.8512 2.60176e-06
320 1 0.2 0.5 0.193833 -2.85004 5.96238e-08
326 1 0.25 0.45 0.193833 -2.85004 5.96238e-08
352 1 0.25 0.55 0.193833 -2.85004 5.96238e-08
354 1 0.233333 0.5 0.127017 -2.8512 2.60176e-06
356 1 0.283333 0.45 0.127017 -2.8512 2.60176e-06
357 1 0.283333 0.55 0.127017 -2.8512 2.60176e-06
477 1 0.3 0.5 0.193833 -2.85004 5.96238e-08
478 1 0.333333 0.5 0.127017 -2.8512 2.60176e-06
479 1 0.35 0.45 0.193833 -2.85004 5.96238e-08
480 1 0.35 0.55 0.193833 -2.85004 5.96238e-08
484 1 0.383333 0.45 0.127017 -2.8512 2.60176e-06
507 1 0.383333 0.55 0.127017 -2.8512 2.60176e-06
600 1 0.4 0.5 0.193833 -2.85004 5.96238e-08
606 1 0.45 0.45 0.193833 -2.85004 5.96238e-08
632 1 0.45 0.55 0.193833 -2.85004 5.96238e-08
634 1 0.433333 0.5 0.127017 -2.8512 2.60176e-06
636 1 0.483333 0.45 0.127017 -2.8512 2.60176e-06
637 1 0.483333 0.55 0.127017 -2.8512 2.60176e-06
757 1 0.5 0.5 0.193833 -2.85004 5.96238e-08
758 1 0.533333 0.5 0.127017 -2.8512 2.60176e-06
759 1 0.55 0.45 0.193833 -2.85004 5.96238e-08
760 1 0.55 0.55 0.193833 -2.85004 5.96238e-08
764 1 0.583333 0.45 0.127017 -2.8512 2.60176e-06
787 1 0.583333 0.55 0.127017 -2.8512 2.60176e-06
880 1 0.6 0.5 0.193833 -2.85004 5.96238e-08
886 1 0.65 0.45 0.193833 -2.85004 5.96238e-08
912 1 0.65 0.55 0.193833 -2.85004 5.96238e-08
914 1 0.633333 0.5 0.127017 -2.8512 2.60176e-06
916 1 0.683333 0.45 0.127017 -2.8512 2.60176e-06
917 1 0.683333 0.55 0.127017 -2.8512 2.60176e-06
1037 1 0.7 0.5 0.193833 -2.85004 5.96238e-08
1038 1 0.733333 0.5 0.127017 -2.8512 2.60176e-06
1039 1 0.75 0.45 0.193833 -2.85004 5.96238e-08
1040 1 0.75 0.55 0.193833 -2.85004 5.96238e-08
1044 1 0.783333 0.45 0.127017 -2.8512 2.60176e-06
1067 1 0.783333 0.55 0.127017 -2.8512 2.60176e-06
1160 1 0.8 0.5 0.193833 -2.85004 5.96238e-08
1194 1 0.833333 0.5 0.127017 -2.8512 2.60176e-06
1166 1 0.85 0.45 0.193833 -2.85004 5.96238e-08
1192 1 0.85 0.55 0.193833 -2.85004 5.96238e-08
1196 1 0.883333 0.45 0.127017 -2.8512 2.60176e-06
1197 1 0.883333 0.55 0.127017 -2.8512 2.60176e-06
1312 1 0.9 0.5 0.193833 -2.85004 5.96238e-08
1313 1 0.933333 0.5 0.127017 -2.8512 2.60176e-06