ITEM: TIMESTEP
119
ITEM: NUMBER OF ATOMS
3200
ITEM: BOX BOUNDS pp pp ss
0.0000000000000000e+00 5.0092067021360698e+01
0.0000000000000000e+00 2.8920668379047399e+01
-1.5671243861047840e-01 3.5533785112952430e+01
ITEM: ATOMS id type xs ys zs c_peratom c_csym
1 1 1.55566e-07 0.0999997 0.000102741 -2.4771 24.5082
2 1 0.0166667 0.0500003 0.0651005 -2.83187 0.00500485
5 1 0.0499998 0.0500001 0.000102698 -2.4771 24.5083
45 1 0.0666666 0.0999999 0.0651005 -2.83187 0.00500486
48 1 0.0666665 1.55797e-07 0.0651004 -2.83187 0.00500683
49 1 0.0999999 1.02684e-07 0.000102658 -2.4771 24.5084
50 1 0.116667 0.0499997 0.0651004 -2.83187 0.00500608
66 1 0.0999998 0.0999999 0.000102776 -2.4771 24.5083
67 1 0.15 0.0500002 0.000102904 -2.4771 24.5082
178 1 0.166667 0.1 0.0651004 -2.83187 0.0050071
179 1 0.2 0.1 0.000102745 -2.4771 24.5082
180 1 0.216667 0.0500002 0.0651004 -2.83187 0.00500574
182 1 0.2 1.84467e-07 0.000102793 -2.4771 24.5082
183 1 0.25 0.0500001 0.000102644 -2.4771 24.5084
304 1 0.266667 0.0999997 0.0651003 -2.83187 0.00500777
307 1 0.266666 3.81866e-09 0.0651004 -2.83187 0.00500588
308 1 0.3 7.36748e-08 0.00010283 -2.4771 24.5083
309 1 0.316666 0.0499998 0.0651006 -2.83187 0.00500484
335 1 0.3 0.0999999 0.000102793 -2.4771 24.5083
336 1 0.35 0.0499997 0.00010297 -2.4771 24.5081
458 1 0.366667 0.0999999 0.0651004 -2.83187 0.0050073
459 1 0.4 0.1 0.00010271 -2.4771 24.5084
460 1 0.416666 0.0500002 0.0651006 -2.83187 0.00500407
462 1 0.4 2.26768e-07 0.000102811 -2.4771 24.5082
463 1 0.45 0.05 0.000102922 -2.4771 24.5081
584 1 0.466667 0.1 0.0651005 -2.83187 0.00500526
588 1 0.5 7.99778e-08 0.000102698 -2.4771 24.5085
615 1 0.5 0.0999999 0.000102871 -2.4771 24.5082
589 1 0.516667 0.0499997 0.0651004 -2.83187 0.00500659
616 1 0.55 0.0500002 0.000102792 -2.4771 24.5083
715 1 0.566667 1.20563e-09 0.0651004 -2.83187 0.00500729
738 1 0.566667 0.1 0.0651005 -2.83187 0.0050057
739 1 0.6 0.1 0.000102921 -2.4771 24.5081
740 1 0.616667 0.0500001 0.0651004 -2.83187 0.00500668
743 1 0.65 0.05 0.000102678 -2.4771 24.5085
864 1 0.666667 0.1 0.0651003 -2.83187 0.00500673
867 1 0.666667 6.82114e-08 0.0651004 -2.83187 0.0050059
869 1 0.716667 0.0499999 0.0651004 -2.83187 0.00500598
895 1 0.7 0.1 0.000102752 -2.4771 24.5083
896 1 0.75 0.0500003 0.000102873 -2.4771 24.5081
1018 1 0.766667 0.1 0.0651004 -2.83187 0.0050073
1019 1 0.8 0.0999999 0.00010283 -2.4771 24.5082
1020 1 0.816667 0.05 0.0651006 -2.83187 0.00500431
1023 1 0.85 0.0499997 0.000102709 -2.4771 24.5083
1144 1 0.866667 0.1 0.0651004 -2.83187 0.00500719
1147 1 0.866667 2.39766e-07 0.0651005 -2.83187 0.00500481
1148 1 0.9 9.55149e-08 0.000102847 -2.4771 24.5082
1149 1 0.916667 0.0499998 0.0651004 -2.83187 0.00500638
1175 1 0.9 0.1 0.000102858 -2.4771 24.5081
4 1 1 3.22296e-08 0.000102835 -2.4771 24.5082
1176 1 0.95 0.0499998 0.000102712 -2.4771 24.5083
1275 1 0.966667 5.9967e-08 0.0651004 -2.83187 0.00500688
1298 1 0.966667 0.0999997 0.0651003 -2.83187 0.00500806
3 1 0.0166665 0.15 0.0651004 -2.83187 0.00500681
7 1 0.0166668 0.25 0.0651004 -2.83187 0.00500659
10 1 0.05 0.15 0.000102771 -2.4771 24.5082
11 1 0.05 0.25 0.000102676 -2.4771 24.5084
62 1 0.0666665 0.2 0.0651004 -2.83187 0.00500763
63 1 0.1 0.2 0.000102802 -2.4771 24.5082
64 1 0.116667 0.15 0.0651004 -2.83187 0.00500604
65 1 0.116667 0.25 0.0651005 -2.83187 0.0050052
68 1 0.15 0.15 0.00010277 -2.4771 24.5084
85 1 0.15 0.25 0.000102943 -2.4771 24.508
175 1 0.166667 0.2 0.0651005 -2.83187 0.00500486
181 1 0.216667 0.15 0.0651005 -2.83187 0.00500529
207 1 0.216667 0.25 0.0651003 -2.83187 0.00500816
209 1 0.2 0.2 0.000102758 -2.4771 24.5083
210 1 0.25 0.15 0.000102701 -2.4771 24.5083
211 1 0.25 0.25 0.000102773 -2.4771 24.5082
331 1 0.266667 0.2 0.0651004 -2.83187 0.00500577
332 1 0.3 0.2 0.000102688 -2.4771 24.5084
333 1 0.316667 0.15 0.0651004 -2.83187 0.00500667
334 1 0.316667 0.25 0.0651003 -2.83187 0.00500665
337 1 0.35 0.15 0.000102826 -2.4771 24.5082
363 1 0.35 0.25 0.00010277 -2.4771 24.5083
455 1 0.366667 0.2 0.0651004 -2.83187 0.00500573
461 1 0.416667 0.15 0.0651004 -2.83187 0.00500586
489 1 0.4 0.2 0.000102688 -2.4771 24.5083
487 1 0.416667 0.25 0.0651004 -2.83187 0.00500606
490 1 0.45 0.15 0.000102671 -2.4771 24.5084
491 1 0.45 0.25 0.000102773 -2.4771 24.5083
611 1 0.466667 0.2 0.0651003 -2.83187 0.00500754
612 1 0.5 0.2 0.000102691 -2.4771 24.5084
613 1 0.516667 0.15 0.0651004 -2.83187 0.00500667
614 1 0.516667 0.25 0.0651005 -2.83187 0.00500518
617 1 0.55 0.15 0.000102709 -2.4771 24.5085
643 1 0.55 0.25 0.000102823 -2.4771 24.5081
735 1 0.566666 0.2 0.0651004 -2.83187 0.00500751
741 1 0.616667 0.15 0.0651004 -2.83187 0.00500658
767 1 0.616667 0.25 0.0651006 -2.83187 0.00500425
769 1 0.6 0.2 0.000102822 -2.4771 24.5083
770 1 0.65 0.15 0.000102653 -2.4771 24.5084
771 1 0.65 0.25 0.000102916 -2.4771 24.5082
891 1 0.666667 0.2 0.0651004 -2.83187 0.00500715
892 1 0.7 0.2 0.000102841 -2.4771 24.5081
893 1 0.716667 0.15 0.0651004 -2.83187 0.00500665
894 1 0.716667 0.25 0.0651005 -2.83187 0.00500515
897 1 0.75 0.15 0.000102845 -2.4771 24.5082
923 1 0.75 0.25 0.000102744 -2.4771 24.5082
1015 1 0.766667 0.2 0.0651004 -2.83187 0.00500643
1021 1 0.816667 0.15 0.0651004 -2.83187 0.00500593
1047 1 0.816667 0.25 0.0651004 -2.83187 0.00500673
1049 1 0.8 0.2 0.000102654 -2.4771 24.5084
1050 1 0.85 0.15 0.000102587 -2.4771 24.5086
1051 1 0.85 0.25 0.000102896 -2.4771 24.5082
1171 1 0.866667 0.2 0.0651005 -2.83187 0.00500573
1172 1 0.9 0.2 0.000102864 -2.4771 24.5082
9 1 1 0.2 0.000102644 -2.4771 24.5084
1173 1 0.916667 0.15 0.0651005 -2.83187 0.0050055
1174 1 0.916667 0.25 0.0651004 -2.83187 0.00500724
1177 1 0.95 0.15 0.000102875 -2.4771 24.5082
1203 1 0.95 0.25 0.000102829 -2.4771 24.5081
1295 1 0.966667 0.2 0.0651005 -2.83187 0.00500473
6 1 6.51908e-08 0.3 0.000102921 -2.4771 24.5081
8 1 0.0166665 0.35 0.0651005 -2.83187 0.00500584
16 1 0.05 0.35 0.000102968 -2.4771 24.5081
59 1 0.0666669 0.3 0.0651004 -2.83187 0.00500663
80 1 0.0666666 0.4 0.0651005 -2.83187 0.00500513
81 1 0.0999999 0.4 0.000102792 -2.4771 24.5082
82 1 0.116667 0.35 0.0651003 -2.83187 0.00500742
84 1 0.1 0.3 0.000102593 -2.4771 24.5085
86 1 0.15 0.35 0.000102731 -2.4771 24.5083
202 1 0.166667 0.4 0.0651004 -2.83187 0.00500607
205 1 0.166667 0.3 0.0651005 -2.83187 0.00500532
206 1 0.2 0.3 0.000102806 -2.4771 24.5082
208 1 0.216667 0.35 0.0651005 -2.83187 0.00500577
233 1 0.2 0.4 0.000102836 -2.4771 24.5082
234 1 0.25 0.35 0.000102678 -2.4771 24.5083
328 1 0.266667 0.3 0.0651004 -2.83187 0.00500657
358 1 0.266667 0.4 0.0651004 -2.83187 0.00500691
359 1 0.3 0.4 0.000102754 -2.4771 24.5082
360 1 0.316667 0.35 0.0651004 -2.83187 0.00500587
362 1 0.3 0.3 0.000102696 -2.4771 24.5082
364 1 0.35 0.35 0.000102827 -2.4771 24.5082
482 1 0.366667 0.4 0.0651005 -2.83187 0.00500522
485 1 0.366667 0.3 0.0651003 -2.83187 0.00500741
486 1 0.4 0.3 0.000102796 -2.4771 24.5082
513 1 0.4 0.4 0.000102743 -2.4771 24.5083
488 1 0.416667 0.35 0.0651004 -2.83187 0.0050065
514 1 0.45 0.35 0.000102638 -2.4771 24.5083
608 1 0.466667 0.3 0.0651004 -2.83187 0.00500668
638 1 0.466667 0.4 0.0651003 -2.83187 0.00500686
639 1 0.5 0.4 0.000102804 -2.4771 24.5081
642 1 0.5 0.3 0.000102745 -2.4771 24.5083
640 1 0.516667 0.35 0.0651003 -2.83187 0.00500731
644 1 0.55 0.35 0.000102627 -2.4771 24.5084
762 1 0.566667 0.4 0.0651003 -2.83187 0.00500714
765 1 0.566667 0.3 0.0651005 -2.83187 0.00500493
766 1 0.6 0.3 0.00010294 -2.4771 24.5081
768 1 0.616667 0.35 0.0651004 -2.83187 0.00500663
793 1 0.6 0.4 0.000102773 -2.4771 24.5083
794 1 0.65 0.35 0.000102718 -2.4771 24.5084
888 1 0.666667 0.3 0.0651005 -2.83187 0.00500575
918 1 0.666667 0.4 0.0651005 -2.83187 0.00500565
919 1 0.7 0.4 0.000102848 -2.4771 24.5081
920 1 0.716667 0.35 0.0651004 -2.83187 0.00500688
922 1 0.7 0.3 0.000102694 -2.4771 24.5084
924 1 0.75 0.35 0.000102861 -2.4771 24.5082
1042 1 0.766667 0.4 0.0651005 -2.83187 0.00500545
1045 1 0.766667 0.3 0.0651004 -2.83187 0.00500673
1046 1 0.8 0.3 0.000102772 -2.4771 24.5083
1048 1 0.816667 0.35 0.0651004 -2.83187 0.00500645
1073 1 0.8 0.4 0.000102804 -2.4771 24.5083
1074 1 0.85 0.35 0.000102908 -2.4771 24.5081
1168 1 0.866667 0.3 0.0651005 -2.83187 0.0050057
1198 1 0.866667 0.4 0.0651003 -2.83187 0.00500763
1199 1 0.9 0.4 0.000102763 -2.4771 24.5081
1202 1 0.9 0.3 0.000102692 -2.4771 24.5084
15 1 1 0.4 0.000102662 -2.4771 24.5084
1200 1 0.916667 0.35 0.0651003 -2.83187 0.00500719
1204 1 0.95 0.35 0.000102552 -2.4771 24.5086
1317 1 0.966667 0.4 0.0651005 -2.83187 0.00500443
1320 1 0.966667 0.3 0.0651004 -2.83187 0.00500643
13 1 0.0166665 0.45 0.0651003 -2.83187 0.00500747
14 1 0.0166666 0.55 0.0651004 -2.83187 0.00500655
17 1 0.0500002 0.45 0.000102803 -2.4771 24.5081
22 1 0.0500002 0.55 0.000102886 -2.4771 24.5081
77 1 0.0666668 0.5 0.0651005 -2.83187 0.00500568
83 1 0.116667 0.45 0.0651004 -2.83187 0.0050064
100 1 0.116667 0.55 0.0651005 -2.83187 0.00500547
102 1 0.0999999 0.5 0.000102729 -2.4771 24.5084
103 1 0.15 0.45 0.000102705 -2.4771 24.5083
104 1 0.15 0.55 0.000102836 -2.4771 24.5082
229 1 0.166667 0.5 0.0651004 -2.83187 0.0050071
230 1 0.2 0.5 0.000102785 -2.4771 24.5083
231 1 0.216667 0.45 0.0651004 -2.83187 0.00500629
232 1 0.216667 0.55 0.0651005 -2.83187 0.00500535
250 1 0.25 0.55 0.000102772 -2.4771 24.5082
235 1 0.25 0.45 0.000102792 -2.4771 24.5084
355 1 0.266667 0.5 0.0651005 -2.83187 0.00500658
361 1 0.316667 0.45 0.0651005 -2.83187 0.00500535
380 1 0.316667 0.55 0.0651004 -2.83187 0.00500761
382 1 0.3 0.5 0.000102841 -2.4771 24.5082
383 1 0.35 0.45 0.000102951 -2.4771 24.5081
384 1 0.35 0.55 0.000102883 -2.4771 24.5082
509 1 0.366667 0.5 0.0651006 -2.83187 0.00500433
510 1 0.4 0.5 0.000102786 -2.4771 24.5082
511 1 0.416667 0.45 0.0651003 -2.83187 0.00500786
512 1 0.416667 0.55 0.0651006 -2.83187 0.00500384
515 1 0.45 0.45 0.000102651 -2.4771 24.5083
530 1 0.45 0.55 0.00010272 -2.4771 24.5082
635 1 0.466667 0.5 0.0651003 -2.83187 0.00500742
662 1 0.5 0.5 0.00010271 -2.4771 24.5082
641 1 0.516667 0.45 0.0651005 -2.83187 0.00500521
660 1 0.516667 0.55 0.0651004 -2.83187 0.00500625
663 1 0.55 0.45 0.000102719 -2.4771 24.5084
664 1 0.55 0.55 0.00010285 -2.4771 24.5081
789 1 0.566667 0.5 0.0651004 -2.83187 0.00500571
790 1 0.6 0.5 0.000102838 -2.4771 24.5082
791 1 0.616667 0.45 0.0651004 -2.83187 0.0050071
792 1 0.616667 0.55 0.0651005 -2.83187 0.0050059
795 1 0.65 0.45 0.000102697 -2.4771 24.5083
810 1 0.65 0.55 0.000102663 -2.4771 24.5083
915 1 0.666667 0.5 0.0651004 -2.83187 0.00500692
921 1 0.716667 0.45 0.0651004 -2.83187 0.00500647
940 1 0.716667 0.55 0.0651004 -2.83187 0.00500682
942 1 0.7 0.5 0.00010272 -2.4771 24.5084
944 1 0.75 0.55 0.000102789 -2.4771 24.5083
943 1 0.75 0.45 0.000102901 -2.4771 24.5082
1069 1 0.766667 0.5 0.0651005 -2.83187 0.00500466
1070 1 0.8 0.5 0.000102686 -2.4771 24.5085
1071 1 0.816667 0.45 0.0651004 -2.83187 0.0050063
1072 1 0.816667 0.55 0.0651005 -2.83187 0.00500534
1075 1 0.85 0.45 0.000102711 -2.4771 24.5084
1090 1 0.85 0.55 0.00010283 -2.4771 24.5082
1195 1 0.866667 0.5 0.0651004 -2.83187 0.00500692
1201 1 0.916666 0.45 0.0651005 -2.83187 0.00500475
1222 1 0.9 0.5 0.000102696 -2.4771 24.5083
12 1 1 0.5 0.000102703 -2.4771 24.5085
1220 1 0.916667 0.55 0.0651005 -2.83187 0.00500601
1223 1 0.95 0.45 0.000102897 -2.4771 24.508
1224 1 0.95 0.55 0.000102701 -2.4771 24.5083
1338 1 0.966667 0.5 0.0651004 -2.83187 0.00500693
18 1 1.05497e-07 0.7 0.000102731 -2.4771 24.5084
19 1 0.0166668 0.65 0.0651004 -2.83187 0.0050064
21 1 1.68545e-07 0.6 0.000102918 -2.4771 24.508
23 1 0.0499999 0.65 0.000102559 -2.4771 24.5086
95 1 0.0666665 0.7 0.0651004 -2.83187 0.00500604
98 1 0.0666665 0.6 0.0651004 -2.83187 0.00500611
99 1 0.1 0.6 0.000102852 -2.4771 24.5083
101 1 0.116667 0.65 0.0651004 -2.83187 0.00500724
114 1 0.0999999 0.7 0.000102862 -2.4771 24.5082
115 1 0.15 0.65 0.00010275 -2.4771 24.5084
245 1 0.166667 0.7 0.0651005 -2.83187 0.00500526
226 1 0.166667 0.6 0.0651004 -2.83187 0.00500678
246 1 0.2 0.7 0.000102846 -2.4771 24.5082
247 1 0.216667 0.65 0.0651004 -2.83187 0.00500759
249 1 0.2 0.6 0.000102729 -2.4771 24.5083
251 1 0.25 0.65 0.000102696 -2.4771 24.5083
375 1 0.266667 0.7 0.0651004 -2.83187 0.00500671
378 1 0.266667 0.6 0.0651005 -2.83187 0.00500508
379 1 0.3 0.6 0.000102768 -2.4771 24.5083
381 1 0.316666 0.65 0.0651004 -2.83187 0.005006
394 1 0.3 0.7 0.000102729 -2.4771 24.5084
395 1 0.35 0.65 0.000102828 -2.4771 24.5082
506 1 0.366667 0.6 0.0651004 -2.83187 0.00500742
525 1 0.366667 0.7 0.0651002 -2.83187 0.00500853
526 1 0.4 0.7 0.000102621 -2.4771 24.5085
529 1 0.4 0.6 0.000102884 -2.4771 24.5081
527 1 0.416667 0.65 0.0651004 -2.83187 0.00500668
531 1 0.45 0.65 0.000102884 -2.4771 24.5081
655 1 0.466667 0.7 0.0651005 -2.83187 0.00500592
658 1 0.466667 0.6 0.0651004 -2.83187 0.00500646
659 1 0.5 0.6 0.000102668 -2.4771 24.5084
674 1 0.5 0.7 0.000102769 -2.4771 24.5083
661 1 0.516667 0.65 0.0651004 -2.83187 0.00500532
675 1 0.55 0.65 0.000102748 -2.4771 24.5083
786 1 0.566667 0.6 0.0651004 -2.83187 0.0050068
805 1 0.566667 0.7 0.0651003 -2.83187 0.0050075
806 1 0.6 0.7 0.000102799 -2.4771 24.5084
807 1 0.616667 0.65 0.0651004 -2.83187 0.00500621
809 1 0.6 0.6 0.000102735 -2.4771 24.5081
811 1 0.65 0.65 0.000102784 -2.4771 24.5082
938 1 0.666667 0.6 0.0651004 -2.83187 0.00500602
935 1 0.666667 0.7 0.0651005 -2.83187 0.00500622
939 1 0.7 0.6 0.000102763 -2.4771 24.5082
941 1 0.716667 0.65 0.0651004 -2.83187 0.00500574
954 1 0.7 0.7 0.000102791 -2.4771 24.5083
955 1 0.75 0.65 0.000102684 -2.4771 24.5083
1066 1 0.766667 0.6 0.0651005 -2.83187 0.00500553
1085 1 0.766667 0.7 0.0651003 -2.83187 0.0050075
1086 1 0.8 0.7 0.000102706 -2.4771 24.5083
1087 1 0.816667 0.65 0.0651003 -2.83187 0.00500764
1089 1 0.8 0.6 0.000102726 -2.4771 24.5083
1091 1 0.85 0.65 0.000102822 -2.4771 24.5081
1215 1 0.866667 0.7 0.0651004 -2.83187 0.00500694
1218 1 0.866667 0.6 0.0651005 -2.83187 0.0050051
1219 1 0.9 0.6 0.000102924 -2.4771 24.5081
1234 1 0.9 0.7 0.000102717 -2.4771 24.5083
1221 1 0.916667 0.65 0.0651005 -2.83187 0.0050062
1235 1 0.95 0.65 0.00010284 -2.4771 24.5082
1335 1 0.966667 0.6 0.0651005 -2.83187 0.00500605
1348 1 0.966667 0.7 0.0651004 -2.83187 0.0050072
20 1 0.0166667 0.75 0.0651005 -2.83187 0.00500636
25 1 0.0166666 0.85 0.0651005 -2.83187 0.00500641
28 1 0.0499999 0.75 0.000102701 -2.4771 24.5084
29 1 0.0499999 0.85 0.000102834 -2.4771 24.5082
110 1 0.0666666 0.8 0.0651004 -2.83187 0.00500636
111 1 0.0999998 0.8 0.000102826 -2.4771 24.5082
112 1 0.116667 0.75 0.0651004 -2.83187 0.00500675
113 1 0.116667 0.85 0.0651004 -2.83187 0.00500585
116 1 0.15 0.75 0.00010266 -2.4771 24.5084
119 1 0.15 0.85 0.000102662 -2.4771 24.5083
242 1 0.166667 0.8 0.0651003 -2.83187 0.00500685
248 1 0.216666 0.75 0.0651005 -2.83187 0.00500568
255 1 0.216667 0.85 0.0651002 -2.83187 0.00500812
257 1 0.2 0.8 0.000102642 -2.4771 24.5083
259 1 0.25 0.85 0.000102683 -2.4771 24.5084
258 1 0.25 0.75 0.000102791 -2.4771 24.5081
390 1 0.266667 0.8 0.0651004 -2.83187 0.00500617
391 1 0.3 0.8 0.000102806 -2.4771 24.5083
392 1 0.316667 0.75 0.0651004 -2.83187 0.0050065
393 1 0.316667 0.85 0.0651006 -2.83187 0.00500526
396 1 0.35 0.75 0.000102663 -2.4771 24.5084
399 1 0.35 0.85 0.000102815 -2.4771 24.5082
522 1 0.366667 0.8 0.0651003 -2.83187 0.00500837
535 1 0.416667 0.85 0.0651004 -2.83187 0.00500744
537 1 0.4 0.8 0.000102719 -2.4771 24.5083
528 1 0.416667 0.75 0.0651004 -2.83187 0.00500594
538 1 0.45 0.75 0.000102877 -2.4771 24.5081
539 1 0.45 0.85 0.000102815 -2.4771 24.5082
670 1 0.466667 0.8 0.0651006 -2.83187 0.00500421
671 1 0.5 0.8 0.00010278 -2.4771 24.5082
672 1 0.516667 0.75 0.0651005 -2.83187 0.00500566
673 1 0.516667 0.85 0.0651004 -2.83187 0.00500677
676 1 0.55 0.75 0.000102868 -2.4771 24.5082
679 1 0.55 0.85 0.000102636 -2.4771 24.5084
802 1 0.566667 0.8 0.0651005 -2.83187 0.00500638
808 1 0.616666 0.75 0.0651005 -2.83187 0.00500617
815 1 0.616667 0.85 0.0651005 -2.83187 0.00500633
817 1 0.6 0.8 0.000102962 -2.4771 24.5081
818 1 0.65 0.75 0.000102928 -2.4771 24.5082
819 1 0.65 0.85 0.000102944 -2.4771 24.5081
950 1 0.666667 0.8 0.0651005 -2.83187 0.00500558
951 1 0.7 0.8 0.000102792 -2.4771 24.5083
952 1 0.716667 0.75 0.0651005 -2.83187 0.00500516
953 1 0.716666 0.85 0.0651003 -2.83187 0.00500773
956 1 0.75 0.75 0.000102675 -2.4771 24.5084
959 1 0.75 0.85 0.000102784 -2.4771 24.5081
1082 1 0.766667 0.8 0.0651004 -2.83187 0.00500517
1088 1 0.816667 0.75 0.0651004 -2.83187 0.00500696
1095 1 0.816667 0.85 0.0651005 -2.83187 0.00500502
1097 1 0.8 0.8 0.00010271 -2.4771 24.5084
1098 1 0.85 0.75 0.000102765 -2.4771 24.5083
1099 1 0.85 0.85 0.000102926 -2.4771 24.5081
1230 1 0.866667 0.8 0.0651005 -2.83187 0.00500468
1231 1 0.9 0.8 0.000102722 -2.4771 24.5083
1233 1 0.916667 0.85 0.0651003 -2.83187 0.00500811
27 1 1 0.8 0.000102895 -2.4771 24.5081
1232 1 0.916667 0.75 0.0651004 -2.83187 0.00500668
1236 1 0.95 0.75 0.000102785 -2.4771 24.5081
1239 1 0.95 0.85 0.000102867 -2.4771 24.5081
1345 1 0.966667 0.8 0.0651006 -2.83187 0.00500425
24 1 1.49884e-07 0.9 0.000102829 -2.4771 24.5082
26 1 0.0166667 0.95 0.0651005 -2.83187 0.00500549
30 1 0.0500002 0.95 0.000102721 -2.4771 24.5083
107 1 0.0666668 0.9 0.0651004 -2.83187 0.00500666
117 1 0.116667 0.95 0.0651003 -2.83187 0.00500771
118 1 0.0999998 0.9 0.000102812 -2.4771 24.5082
120 1 0.15 0.95 0.000102727 -2.4771 24.5083
253 1 0.166667 0.9 0.0651004 -2.83187 0.00500512
155 1 0.166667 1 0.0651004 -2.83187 0.0050068
254 1 0.2 0.9 0.000102633 -2.4771 24.5083
256 1 0.216667 0.95 0.0651003 -2.83187 0.00500797
260 1 0.25 0.95 0.000102782 -2.4771 24.5081
387 1 0.266667 0.9 0.0651006 -2.83187 0.00500373
397 1 0.316667 0.95 0.0651005 -2.83187 0.00500655
398 1 0.3 0.9 0.000102961 -2.4771 24.5081
435 1 0.366667 1 0.0651004 -2.83187 0.00500737
400 1 0.35 0.95 0.00010288 -2.4771 24.5083
533 1 0.366667 0.9 0.0651006 -2.83187 0.00500481
534 1 0.4 0.9 0.000102825 -2.4771 24.5083
536 1 0.416667 0.95 0.0651006 -2.83187 0.00500446
587 1 0.466667 1 0.0651004 -2.83187 0.00500693
540 1 0.45 0.95 0.000102858 -2.4771 24.5083
667 1 0.466667 0.9 0.0651004 -2.83187 0.00500658
678 1 0.5 0.9 0.00010266 -2.4771 24.5083
677 1 0.516667 0.95 0.0651004 -2.83187 0.00500569
680 1 0.55 0.95 0.000102774 -2.4771 24.5083
813 1 0.566667 0.9 0.0651003 -2.83187 0.00500718
742 1 0.6 1 0.000102851 -2.4771 24.508
814 1 0.6 0.9 0.000102634 -2.4771 24.5084
816 1 0.616667 0.95 0.0651005 -2.83187 0.00500456
820 1 0.65 0.95 0.000102775 -2.4771 24.5082
947 1 0.666667 0.9 0.0651004 -2.83187 0.0050065
868 1 0.7 1 0.000102715 -2.4771 24.5083
957 1 0.716667 0.95 0.0651003 -2.83187 0.00500722
958 1 0.7 0.9 0.000102555 -2.4771 24.5085
960 1 0.75 0.95 0.000102653 -2.4771 24.5084
995 1 0.766667 1 0.0651004 -2.83187 0.0050068
1022 1 0.8 1 0.000102902 -2.4771 24.5082
1093 1 0.766667 0.9 0.0651004 -2.83187 0.00500625
1094 1 0.8 0.9 0.000102891 -2.4771 24.5082
1096 1 0.816667 0.95 0.0651004 -2.83187 0.00500713
1100 1 0.85 0.95 0.000102698 -2.4771 24.5084
1227 1 0.866667 0.9 0.0651005 -2.83187 0.00500523
1238 1 0.9 0.9 0.000102794 -2.4771 24.5083
1237 1 0.916667 0.95 0.0651004 -2.83187 0.00500649
1240 1 0.95 0.95 0.000102711 -2.4771 24.5084
1350 1 0.966667 0.9 0.0651005 -2.83187 0.00500587
36 1 0.0500001 0.0499997 0.19741 -2.85004 3.80007e-08
44 1 0.0333332 0.0999998 0.131243 -2.8512 2.32525e-06
46 1 0.0833335 0.0499999 0.131243 -2.8512 2.32558e-06
150 1 0.1 0.1 0.19741 -2.85004 3.56817e-08
151 1 0.133333 0.1 0.131243 -2.8512 2.3741e-06
152 1 0.15 0.0499999 0.19741 -2.85004 3.42268e-08
156 1 0.183333 0.05 0.131243 -2.8512 2.34339e-06
280 1 0.2 0.1 0.19741 -2.85004 3.87633e-08
284 1 0.233333 1.11071e-07 0.131243 -2.8512 2.3489e-06
285 1 0.25 0.0499999 0.19741 -2.85004 3.5764e-08
303 1 0.233333 0.1 0.131243 -2.8512 2.33233e-06
305 1 0.283333 0.0500002 0.131243 -2.8512 2.31122e-06
430 1 0.3 0.1 0.19741 -2.85004 3.7986e-08
431 1 0.333333 0.1 0.131243 -2.8512 2.36968e-06
434 1 0.333333 2.24051e-07 0.131243 -2.8512 2.35465e-06
432 1 0.35 0.0500003 0.19741 -2.85004 3.54823e-08
436 1 0.383333 0.0499999 0.131243 -2.8512 2.3403e-06
560 1 0.4 0.0999997 0.19741 -2.85004 3.67922e-08
563 1 0.4 7.79891e-08 0.19741 -2.85004 3.36868e-08
564 1 0.433333 3.30343e-07 0.131243 -2.8512 2.38329e-06
565 1 0.45 0.0499997 0.19741 -2.85003 3.52089e-08
583 1 0.433333 0.1 0.131243 -2.8512 2.33297e-06
585 1 0.483333 0.05 0.131243 -2.8512 2.38846e-06
710 1 0.5 0.0999998 0.19741 -2.85004 3.74675e-08
711 1 0.533333 0.1 0.131243 -2.8512 2.30815e-06
712 1 0.55 0.0499998 0.19741 -2.85004 3.58057e-08
714 1 0.533333 1.10326e-07 0.131243 -2.8512 2.32489e-06
716 1 0.583333 0.0499998 0.131243 -2.8512 2.35439e-06
840 1 0.6 0.1 0.19741 -2.85004 3.68434e-08
844 1 0.633333 2.24635e-08 0.131243 -2.8512 2.35832e-06
845 1 0.65 0.0499997 0.19741 -2.85004 4.23593e-08
863 1 0.633333 0.1 0.131243 -2.8512 2.33413e-06
865 1 0.683333 0.0500003 0.131243 -2.8512 2.37776e-06
975 1 0.7 1.52396e-07 0.19741 -2.85004 3.62148e-08
990 1 0.7 0.0999998 0.19741 -2.85003 3.44904e-08
991 1 0.733333 0.1 0.131243 -2.8512 2.34299e-06
992 1 0.75 0.0499997 0.19741 -2.85004 3.95998e-08
994 1 0.733333 7.73562e-08 0.131243 -2.8512 2.35021e-06
996 1 0.783333 0.0499999 0.131243 -2.8512 2.35919e-06
1120 1 0.8 0.1 0.19741 -2.85004 3.51147e-08
1123 1 0.8 3.23937e-07 0.19741 -2.85004 3.93576e-08
1143 1 0.833333 0.1 0.131243 -2.8512 2.32126e-06
1125 1 0.85 0.05 0.19741 -2.85004 3.55574e-08
1145 1 0.883333 0.0500002 0.131243 -2.8512 2.36146e-06
1255 1 0.9 1.558e-07 0.19741 -2.85004 3.17212e-08
1270 1 0.9 0.1 0.19741 -2.85004 4.09335e-08
31 1 1 0.1 0.19741 -2.85004 3.41139e-08
1271 1 0.933333 0.0999997 0.131243 -2.8512 2.34635e-06
1272 1 0.95 0.0500003 0.19741 -2.85003 3.99508e-08
1274 1 0.933333 1.27782e-07 0.131243 -2.8512 2.35664e-06
1276 1 0.983333 0.0500001 0.131243 -2.8512 2.32994e-06
40 1 1.2092e-07 0.2 0.19741 -2.85004 3.52343e-08
41 1 0.0333335 0.2 0.131243 -2.8512 2.32134e-06
42 1 0.0500001 0.15 0.19741 -2.85004 3.86493e-08
43 1 0.05 0.25 0.19741 -2.85004 3.70861e-08
47 1 0.0833333 0.15 0.131243 -2.8512 2.35012e-06
60 1 0.0833333 0.25 0.131243 -2.8512 2.34278e-06
147 1 0.0999999 0.2 0.19741 -2.85004 3.86728e-08
153 1 0.15 0.15 0.19741 -2.85003 3.25542e-08
172 1 0.15 0.25 0.19741 -2.85004 3.36401e-08
174 1 0.133333 0.2 0.131243 -2.8512 2.36993e-06
176 1 0.183333 0.15 0.131243 -2.8512 2.32522e-06
177 1 0.183333 0.25 0.131243 -2.8512 2.36038e-06
299 1 0.2 0.2 0.19741 -2.85004 3.79529e-08
300 1 0.233333 0.2 0.131243 -2.8512 2.34251e-06
301 1 0.25 0.15 0.19741 -2.85004 3.81183e-08
302 1 0.25 0.25 0.19741 -2.85004 3.99487e-08
306 1 0.283333 0.15 0.131243 -2.8512 2.34729e-06
329 1 0.283333 0.25 0.131243 -2.8512 2.35255e-06
427 1 0.3 0.2 0.19741 -2.85004 3.54187e-08
454 1 0.333333 0.2 0.131243 -2.8512 2.38311e-06
433 1 0.35 0.15 0.19741 -2.85004 3.8853e-08
452 1 0.35 0.25 0.19741 -2.85003 3.76631e-08
456 1 0.383333 0.15 0.131243 -2.8512 2.32705e-06
457 1 0.383333 0.25 0.131243 -2.8512 2.3437e-06
579 1 0.4 0.2 0.19741 -2.85004 3.3452e-08
580 1 0.433333 0.2 0.131243 -2.8512 2.34402e-06
581 1 0.45 0.15 0.19741 -2.85004 3.97524e-08
582 1 0.45 0.25 0.19741 -2.85004 4.20656e-08
586 1 0.483333 0.15 0.131243 -2.8512 2.32999e-06
609 1 0.483333 0.25 0.131243 -2.8512 2.3465e-06
707 1 0.5 0.2 0.19741 -2.85004 3.6539e-08
713 1 0.55 0.15 0.19741 -2.85004 4.13058e-08
732 1 0.55 0.25 0.19741 -2.85004 3.87101e-08
734 1 0.533333 0.2 0.131243 -2.8512 2.32795e-06
737 1 0.583333 0.25 0.131243 -2.8512 2.34176e-06
736 1 0.583333 0.15 0.131243 -2.8512 2.3601e-06
859 1 0.6 0.2 0.19741 -2.85004 3.47087e-08
860 1 0.633333 0.2 0.131243 -2.8512 2.32188e-06
861 1 0.65 0.15 0.19741 -2.85004 3.30832e-08
862 1 0.65 0.25 0.19741 -2.85004 3.98233e-08
866 1 0.683333 0.15 0.131243 -2.8512 2.34568e-06
889 1 0.683333 0.25 0.131243 -2.8512 2.36652e-06
987 1 0.7 0.2 0.19741 -2.85004 3.71053e-08
993 1 0.75 0.15 0.19741 -2.85004 4.42173e-08
1012 1 0.75 0.25 0.19741 -2.85004 3.96756e-08
1014 1 0.733333 0.2 0.131243 -2.8512 2.37823e-06
1016 1 0.783333 0.15 0.131243 -2.8512 2.35135e-06
1017 1 0.783333 0.25 0.131243 -2.8512 2.31679e-06
1139 1 0.8 0.2 0.19741 -2.85004 3.15343e-08
1140 1 0.833333 0.2 0.131243 -2.8512 2.35533e-06
1141 1 0.85 0.15 0.19741 -2.85004 3.92051e-08
1142 1 0.85 0.25 0.19741 -2.85004 3.8959e-08
1146 1 0.883333 0.15 0.131243 -2.8512 2.32538e-06
1169 1 0.883333 0.25 0.131243 -2.8512 2.33779e-06
1267 1 0.9 0.2 0.19741 -2.85004 3.34024e-08
1273 1 0.95 0.15 0.19741 -2.85004 3.82303e-08
1292 1 0.95 0.25 0.19741 -2.85004 3.54881e-08
1294 1 0.933333 0.2 0.131243 -2.8512 2.35496e-06
1296 1 0.983333 0.15 0.131243 -2.8512 2.35449e-06
1297 1 0.983333 0.25 0.131243 -2.8512 2.36628e-06
54 1 1.27527e-07 0.4 0.19741 -2.85004 3.64143e-08
55 1 0.0333334 0.4 0.131243 -2.8512 2.34106e-06
56 1 0.0500002 0.35 0.19741 -2.85004 3.84599e-08
58 1 0.0333334 0.3 0.131243 -2.8512 2.38189e-06
61 1 0.0833334 0.35 0.131243 -2.8512 2.34196e-06
167 1 0.0999999 0.4 0.19741 -2.85004 4.14783e-08
170 1 0.1 0.3 0.19741 -2.85004 3.98523e-08
171 1 0.133333 0.3 0.131243 -2.8512 2.34253e-06
173 1 0.15 0.35 0.19741 -2.85004 3.93951e-08
201 1 0.133333 0.4 0.131243 -2.8512 2.36375e-06
203 1 0.183333 0.35 0.131243 -2.8512 2.36238e-06
296 1 0.2 0.3 0.19741 -2.85004 3.15793e-08
323 1 0.2 0.4 0.19741 -2.85004 3.99508e-08
324 1 0.233333 0.4 0.131243 -2.8512 2.34998e-06
325 1 0.25 0.35 0.19741 -2.85004 3.77097e-08
327 1 0.233333 0.3 0.131243 -2.8512 2.3367e-06
330 1 0.283333 0.35 0.131243 -2.8512 2.36317e-06
447 1 0.3 0.4 0.19741 -2.85004 3.7889e-08
450 1 0.3 0.3 0.19741 -2.85004 3.73574e-08
451 1 0.333333 0.3 0.131243 -2.8512 2.37469e-06
481 1 0.333333 0.4 0.131243 -2.8512 2.34127e-06
453 1 0.35 0.35 0.19741 -2.85004 3.54909e-08
483 1 0.383333 0.35 0.131243 -2.8512 2.35921e-06
576 1 0.4 0.3 0.19741 -2.85004 3.53075e-08
603 1 0.4 0.4 0.19741 -2.85004 3.27588e-08
604 1 0.433333 0.4 0.131243 -2.8512 2.33605e-06
605 1 0.45 0.35 0.19741 -2.85004 3.83528e-08
607 1 0.433334 0.3 0.131243 -2.8512 2.31567e-06
610 1 0.483333 0.35 0.131243 -2.8512 2.37398e-06
727 1 0.5 0.4 0.197409 -2.85004 3.14642e-08
730 1 0.5 0.3 0.19741 -2.85004 3.89781e-08
731 1 0.533333 0.3 0.131243 -2.8512 2.36838e-06
733 1 0.55 0.35 0.19741 -2.85003 3.53634e-08
761 1 0.533333 0.4 0.131243 -2.8512 2.35486e-06
763 1 0.583333 0.35 0.131243 -2.8512 2.33713e-06
856 1 0.6 0.3 0.19741 -2.85004 3.67622e-08
883 1 0.6 0.4 0.19741 -2.85004 4.33123e-08
884 1 0.633333 0.4 0.131243 -2.8512 2.3339e-06
885 1 0.65 0.35 0.19741 -2.85003 3.44231e-08
887 1 0.633333 0.3 0.131243 -2.8512 2.39348e-06
890 1 0.683333 0.35 0.131243 -2.8512 2.31804e-06
1007 1 0.7 0.4 0.19741 -2.85004 3.82113e-08
1010 1 0.7 0.3 0.19741 -2.85004 3.2196e-08
1011 1 0.733333 0.3 0.131243 -2.8512 2.33726e-06
1041 1 0.733333 0.4 0.131243 -2.8512 2.35493e-06
1013 1 0.75 0.35 0.19741 -2.85004 3.31096e-08
1043 1 0.783333 0.35 0.131243 -2.8512 2.38385e-06
1136 1 0.8 0.3 0.19741 -2.85004 4.06423e-08
1163 1 0.8 0.4 0.19741 -2.85004 3.56776e-08
1167 1 0.833333 0.3 0.131243 -2.8512 2.37614e-06
1164 1 0.833333 0.4 0.131243 -2.8512 2.34426e-06
1165 1 0.85 0.35 0.19741 -2.85004 3.98096e-08
1170 1 0.883333 0.35 0.131243 -2.8512 2.38186e-06
1287 1 0.9 0.4 0.19741 -2.85004 3.80642e-08
1290 1 0.9 0.3 0.19741 -2.85004 3.39498e-08
37 1 1 0.3 0.19741 -2.85004 3.4262e-08
1291 1 0.933333 0.3 0.131243 -2.8512 2.30226e-06
1293 1 0.95 0.35 0.19741 -2.85004 4.11949e-08
1316 1 0.933333 0.4 0.131243 -2.8512 2.3644e-06
1318 1 0.983333 0.35 0.131243 -2.8512 2.3209e-06
51 1 6.51706e-08 0.5 0.19741 -2.85004 3.60946e-08
57 1 0.0500001 0.45 0.19741 -2.85003 3.63469e-08
74 1 0.0499999 0.55 0.19741 -2.85004 3.38269e-08
76 1 0.0333333 0.5 0.131243 -2.8512 2.36014e-06
78 1 0.0833333 0.45 0.131243 -2.8512 2.35309e-06
79 1 0.0833332 0.55 0.131243 -2.8512 2.34489e-06
197 1 0.1 0.5 0.19741 -2.85004 3.68075e-08
198 1 0.133333 0.5 0.131243 -2.8512 2.34436e-06
199 1 0.15 0.45 0.19741 -2.85004 3.65864e-08
200 1 0.15 0.55 0.19741 -2.85004 3.92744e-08
204 1 0.183333 0.45 0.131243 -2.8512 2.34704e-06
227 1 0.183333 0.55 0.131243 -2.8512 2.38337e-06
320 1 0.2 0.5 0.19741 -2.85003 3.34276e-08
326 1 0.25 0.45 0.19741 -2.85004 3.51839e-08
352 1 0.25 0.55 0.19741 -2.85004 4.0416e-08
354 1 0.233333 0.5 0.131243 -2.8512 2.34858e-06
356 1 0.283333 0.45 0.131243 -2.8512 2.30892e-06
357 1 0.283333 0.55 0.131243 -2.8512 2.33043e-06
477 1 0.3 0.5 0.19741 -2.85004 3.43548e-08
478 1 0.333333 0.5 0.131243 -2.8512 2.39081e-06
479 1 0.35 0.45 0.19741 -2.85004 3.2382e-08
480 1 0.35 0.55 0.19741 -2.85004 4.1741e-08
484 1 0.383333 0.45 0.131243 -2.8512 2.32749e-06
507 1 0.383333 0.55 0.131243 -2.8512 2.33422e-06
600 1 0.4 0.5 0.19741 -2.85004 3.66218e-08
606 1 0.45 0.45 0.19741 -2.85004 4.01496e-08
632 1 0.45 0.55 0.19741 -2.85004 3.45286e-08
634 1 0.433333 0.5 0.131243 -2.8512 2.35206e-06
636 1 0.483333 0.45 0.131243 -2.8512 2.3224e-06
637 1 0.483333 0.55 0.131243 -2.8512 2.36195e-06
757 1 0.5 0.5 0.19741 -2.85004 3.83852e-08
758 1 0.533333 0.5 0.131243 -2.8512 2.322e-06
759 1 0.55 0.45 0.19741 -2.85004 3.73452e-08
760 1 0.55 0.55 0.19741 -2.85003 4.17532e-08
764 1 0.583333 0.45 0.131242 -2.8512 2.41124e-06
787 1 0.583333 0.55 0.131243 -2.8512 2.37195e-06
880 1 0.6 0.5 0.197409 -2.85004 3.31339e-08
886 1 0.65 0.45 0.19741 -2.85004 4.39922e-08
912 1 0.65 0.55 0.19741 -2.85004 3.98893e-08
914 1 0.633333 0.5 0.131243 -2.8512 2.29446e-06
916 1 0.683333 0.45 0.131243 -2.8512 2.35052e-06
917 1 0.683333 0.55 0.131243 -2.8512 2.35394e-06
1037 1 0.7 0.5 0.19741 -2.85004 3.59541e-08
1038 1 0.733333 0.5 0.131243 -2.8512 2.3535e-06
1039 1 0.75 0.45 0.19741 -2.85004 3.21844e-08
1040 1 0.75 0.55 0.19741 -2.85004 3.53956e-08
1044 1 0.783333 0.45 0.131243 -2.8512 2.32512e-06
1067 1 0.783333 0.55 0.131243 -2.8512 2.35469e-06
1160 1 0.8 0.5 0.19741 -2.85004 3.74359e-08
1194 1 0.833333 0.5 0.131243 -2.8512 2.3448e-06
1166 1 0.85 0.45 0.19741 -2.85004 3.83026e-08
1192 1 0.85 0.55 0.19741 -2.85004 3.48131e-08
1196 1 0.883333 0.45 0.131243 -2.8512 2.31352e-06
1197 1 0.883333 0.55 0.131243 -2.8512 2.35459e-06
1312 1 0.9 0.5 0.19741 -2.85004 3.37281e-08
1313 1 0.933333 0.5 0.131243 -2.8512 2.31916e-06
1314 1 0.95 0.45 0.19741 -2.85004 3.3883e-08
1315 1 0.95 0.55 0.19741 -2.85004 3.74742e-08