ITEM: TIMESTEP
41
ITEM: NUMBER OF ATOMS
3200
ITEM: BOX BOUNDS pp pp ss
0.0000000000000000e+00 5.0092067021360698e+01
0.0000000000000000e+00 2.8920668379047399e+01
3.8451742731260487e-02 3.5381988531723906e+01
ITEM: ATOMS id type xs ys zs c_peratom c_csym
1 1 0 0.1 -0.00413547 -2.47659 24.5499
2 1 0.0166667 0.05 0.0615845 -2.83237 0.0059871
4 1 0 0 -0.00413547 -2.47659 24.5499
5 1 0.05 0.05 -0.00413547 -2.47659 24.5499
45 1 0.0666667 0.1 0.0615845 -2.83237 0.0059871
48 1 0.0666667 0 0.0615845 -2.83237 0.0059871
49 1 0.1 0 -0.00413547 -2.47659 24.5499
50 1 0.116667 0.05 0.0615845 -2.83237 0.0059871
66 1 0.1 0.1 -0.00413547 -2.47659 24.5499
67 1 0.15 0.05 -0.00413547 -2.47659 24.5499
155 1 0.166667 0 0.0615845 -2.83237 0.0059871
178 1 0.166667 0.1 0.0615845 -2.83237 0.0059871
179 1 0.2 0.1 -0.00413547 -2.47659 24.5499
180 1 0.216667 0.05 0.0615845 -2.83237 0.0059871
182 1 0.2 0 -0.00413547 -2.47659 24.5499
183 1 0.25 0.05 -0.00413547 -2.47659 24.5499
304 1 0.266667 0.1 0.0615845 -2.83237 0.0059871
307 1 0.266667 0 0.0615845 -2.83237 0.0059871
308 1 0.3 0 -0.00413547 -2.47659 24.5499
309 1 0.316667 0.05 0.0615845 -2.83237 0.0059871
335 1 0.3 0.1 -0.00413547 -2.47659 24.5499
336 1 0.35 0.05 -0.00413547 -2.47659 24.5499
435 1 0.366667 0 0.0615845 -2.83237 0.0059871
458 1 0.366667 0.1 0.0615845 -2.83237 0.0059871
459 1 0.4 0.1 -0.00413547 -2.47659 24.5499
460 1 0.416667 0.05 0.0615845 -2.83237 0.0059871
462 1 0.4 0 -0.00413547 -2.47659 24.5499
463 1 0.45 0.05 -0.00413547 -2.47659 24.5499
584 1 0.466667 0.1 0.0615845 -2.83237 0.0059871
587 1 0.466667 0 0.0615845 -2.83237 0.0059871
588 1 0.5 0 -0.00413547 -2.47659 24.5499
615 1 0.5 0.1 -0.00413547 -2.47659 24.5499
589 1 0.516667 0.05 0.0615845 -2.83237 0.0059871
616 1 0.55 0.05 -0.00413547 -2.47659 24.5499
715 1 0.566667 0 0.0615845 -2.83237 0.0059871
738 1 0.566667 0.1 0.0615845 -2.83237 0.0059871
739 1 0.6 0.1 -0.00413547 -2.47659 24.5499
740 1 0.616667 0.05 0.0615845 -2.83237 0.0059871
742 1 0.6 0 -0.00413547 -2.47659 24.5499
743 1 0.65 0.05 -0.00413547 -2.47659 24.5499
864 1 0.666667 0.1 0.0615845 -2.83237 0.0059871
867 1 0.666667 0 0.0615845 -2.83237 0.0059871
868 1 0.7 0 -0.00413547 -2.47659 24.5499
869 1 0.716667 0.05 0.0615845 -2.83237 0.0059871
895 1 0.7 0.1 -0.00413547 -2.47659 24.5499
896 1 0.75 0.05 -0.00413547 -2.47659 24.5499
995 1 0.766667 0 0.0615845 -2.83237 0.0059871
1018 1 0.766667 0.1 0.0615845 -2.83237 0.0059871
1019 1 0.8 0.1 -0.00413547 -2.47659 24.5499
1020 1 0.816667 0.05 0.0615845 -2.83237 0.0059871
1022 1 0.8 0 -0.00413547 -2.47659 24.5499
1023 1 0.85 0.05 -0.00413547 -2.47659 24.5499
1144 1 0.866667 0.1 0.0615845 -2.83237 0.0059871
1147 1 0.866667 0 0.0615845 -2.83237 0.0059871
1148 1 0.9 0 -0.00413547 -2.47659 24.5499
1149 1 0.916667 0.05 0.0615845 -2.83237 0.0059871
1175 1 0.9 0.1 -0.00413547 -2.47659 24.5499
1176 1 0.95 0.05 -0.00413547 -2.47659 24.5499
1275 1 0.966667 0 0.0615845 -2.83237 0.0059871
1298 1 0.966667 0.1 0.0615845 -2.83237 0.0059871
3 1 0.0166667 0.15 0.0615845 -2.83237 0.0059871
7 1 0.0166667 0.25 0.0615845 -2.83237 0.0059871
9 1 0 0.2 -0.00413547 -2.47659 24.5499
10 1 0.05 0.15 -0.00413547 -2.47659 24.5499
11 1 0.05 0.25 -0.00413547 -2.47659 24.5499
62 1 0.0666667 0.2 0.0615845 -2.83237 0.0059871
63 1 0.1 0.2 -0.00413547 -2.47659 24.5499
64 1 0.116667 0.15 0.0615845 -2.83237 0.0059871
65 1 0.116667 0.25 0.0615845 -2.83237 0.0059871
68 1 0.15 0.15 -0.00413547 -2.47659 24.5499
85 1 0.15 0.25 -0.00413547 -2.47659 24.5499
175 1 0.166667 0.2 0.0615845 -2.83237 0.0059871
181 1 0.216667 0.15 0.0615845 -2.83237 0.0059871
207 1 0.216667 0.25 0.0615845 -2.83237 0.0059871
209 1 0.2 0.2 -0.00413547 -2.47659 24.5499
210 1 0.25 0.15 -0.00413547 -2.47659 24.5499
211 1 0.25 0.25 -0.00413547 -2.47659 24.5499
331 1 0.266667 0.2 0.0615845 -2.83237 0.0059871
332 1 0.3 0.2 -0.00413547 -2.47659 24.5499
333 1 0.316667 0.15 0.0615845 -2.83237 0.0059871
334 1 0.316667 0.25 0.0615845 -2.83237 0.0059871
337 1 0.35 0.15 -0.00413547 -2.47659 24.5499
363 1 0.35 0.25 -0.00413547 -2.47659 24.5499
455 1 0.366667 0.2 0.0615845 -2.83237 0.0059871
461 1 0.416667 0.15 0.0615845 -2.83237 0.0059871
487 1 0.416667 0.25 0.0615845 -2.83237 0.0059871
489 1 0.4 0.2 -0.00413547 -2.47659 24.5499
490 1 0.45 0.15 -0.00413547 -2.47659 24.5499
491 1 0.45 0.25 -0.00413547 -2.47659 24.5499
611 1 0.466667 0.2 0.0615845 -2.83237 0.0059871
612 1 0.5 0.2 -0.00413547 -2.47659 24.5499
613 1 0.516667 0.15 0.0615845 -2.83237 0.0059871
614 1 0.516667 0.25 0.0615845 -2.83237 0.0059871
617 1 0.55 0.15 -0.00413547 -2.47659 24.5499
643 1 0.55 0.25 -0.00413547 -2.47659 24.5499
735 1 0.566667 0.2 0.0615845 -2.83237 0.0059871
741 1 0.616667 0.15 0.0615845 -2.83237 0.0059871
767 1 0.616667 0.25 0.0615845 -2.83237 0.0059871
769 1 0.6 0.2 -0.00413547 -2.47659 24.5499
770 1 0.65 0.15 -0.00413547 -2.47659 24.5499
771 1 0.65 0.25 -0.00413547 -2.47659 24.5499
891 1 0.666667 0.2 0.0615845 -2.83237 0.0059871
892 1 0.7 0.2 -0.00413547 -2.47659 24.5499
893 1 0.716667 0.15 0.0615845 -2.83237 0.0059871
894 1 0.716667 0.25 0.0615845 -2.83237 0.0059871
897 1 0.75 0.15 -0.00413547 -2.47659 24.5499
923 1 0.75 0.25 -0.00413547 -2.47659 24.5499
1015 1 0.766667 0.2 0.0615845 -2.83237 0.0059871
1021 1 0.816667 0.15 0.0615845 -2.83237 0.0059871
1047 1 0.816667 0.25 0.0615845 -2.83237 0.0059871
1049 1 0.8 0.2 -0.00413547 -2.47659 24.5499
1050 1 0.85 0.15 -0.00413547 -2.47659 24.5499
1051 1 0.85 0.25 -0.00413547 -2.47659 24.5499
1171 1 0.866667 0.2 0.0615845 -2.83237 0.0059871
1172 1 0.9 0.2 -0.00413547 -2.47659 24.5499
1173 1 0.916667 0.15 0.0615845 -2.83237 0.0059871
1174 1 0.916667 0.25 0.0615845 -2.83237 0.0059871
1177 1 0.95 0.15 -0.00413547 -2.47659 24.5499
1203 1 0.95 0.25 -0.00413547 -2.47659 24.5499
1295 1 0.966667 0.2 0.0615845 -2.83237 0.0059871
6 1 0 0.3 -0.00413547 -2.47659 24.5499
8 1 0.0166667 0.35 0.0615845 -2.83237 0.0059871
15 1 0 0.4 -0.00413547 -2.47659 24.5499
16 1 0.05 0.35 -0.00413547 -2.47659 24.5499
59 1 0.0666667 0.3 0.0615845 -2.83237 0.0059871
80 1 0.0666667 0.4 0.0615845 -2.83237 0.0059871
81 1 0.1 0.4 -0.00413547 -2.47659 24.5499
82 1 0.116667 0.35 0.0615845 -2.83237 0.0059871
84 1 0.1 0.3 -0.00413547 -2.47659 24.5499
86 1 0.15 0.35 -0.00413547 -2.47659 24.5499
202 1 0.166667 0.4 0.0615845 -2.83237 0.0059871
205 1 0.166667 0.3 0.0615845 -2.83237 0.0059871
206 1 0.2 0.3 -0.00413547 -2.47659 24.5499
208 1 0.216667 0.35 0.0615845 -2.83237 0.0059871
233 1 0.2 0.4 -0.00413547 -2.47659 24.5499
234 1 0.25 0.35 -0.00413547 -2.47659 24.5499
328 1 0.266667 0.3 0.0615845 -2.83237 0.0059871
358 1 0.266667 0.4 0.0615845 -2.83237 0.0059871
359 1 0.3 0.4 -0.00413547 -2.47659 24.5499
360 1 0.316667 0.35 0.0615845 -2.83237 0.0059871
362 1 0.3 0.3 -0.00413547 -2.47659 24.5499
364 1 0.35 0.35 -0.00413547 -2.47659 24.5499
482 1 0.366667 0.4 0.0615845 -2.83237 0.0059871
485 1 0.366667 0.3 0.0615845 -2.83237 0.0059871
486 1 0.4 0.3 -0.00413547 -2.47659 24.5499
488 1 0.416667 0.35 0.0615845 -2.83237 0.0059871
513 1 0.4 0.4 -0.00413547 -2.47659 24.5499
514 1 0.45 0.35 -0.00413547 -2.47659 24.5499
608 1 0.466667 0.3 0.0615845 -2.83237 0.0059871
638 1 0.466667 0.4 0.0615845 -2.83237 0.0059871
639 1 0.5 0.4 -0.00413547 -2.47659 24.5499
642 1 0.5 0.3 -0.00413547 -2.47659 24.5499
640 1 0.516667 0.35 0.0615845 -2.83237 0.0059871
644 1 0.55 0.35 -0.00413547 -2.47659 24.5499
762 1 0.566667 0.4 0.0615845 -2.83237 0.0059871
765 1 0.566667 0.3 0.0615845 -2.83237 0.0059871
766 1 0.6 0.3 -0.00413547 -2.47659 24.5499
768 1 0.616667 0.35 0.0615845 -2.83237 0.0059871
793 1 0.6 0.4 -0.00413547 -2.47659 24.5499
794 1 0.65 0.35 -0.00413547 -2.47659 24.5499
888 1 0.666667 0.3 0.0615845 -2.83237 0.0059871
918 1 0.666667 0.4 0.0615845 -2.83237 0.0059871
919 1 0.7 0.4 -0.00413547 -2.47659 24.5499
920 1 0.716667 0.35 0.0615845 -2.83237 0.0059871
922 1 0.7 0.3 -0.00413547 -2.47659 24.5499
924 1 0.75 0.35 -0.00413547 -2.47659 24.5499
1042 1 0.766667 0.4 0.0615845 -2.83237 0.0059871
1045 1 0.766667 0.3 0.0615845 -2.83237 0.0059871
1046 1 0.8 0.3 -0.00413547 -2.47659 24.5499
1048 1 0.816667 0.35 0.0615845 -2.83237 0.0059871
1073 1 0.8 0.4 -0.00413547 -2.47659 24.5499
1074 1 0.85 0.35 -0.00413547 -2.47659 24.5499
1168 1 0.866667 0.3 0.0615845 -2.83237 0.0059871
1198 1 0.866667 0.4 0.0615845 -2.83237 0.0059871
1199 1 0.9 0.4 -0.00413547 -2.47659 24.5499
1200 1 0.916667 0.35 0.0615845 -2.83237 0.0059871
1202 1 0.9 0.3 -0.00413547 -2.47659 24.5499
1204 1 0.95 0.35 -0.00413547 -2.47659 24.5499
1317 1 0.966667 0.4 0.0615845 -2.83237 0.0059871
1320 1 0.966667 0.3 0.0615845 -2.83237 0.0059871
12 1 0 0.5 -0.00413547 -2.47659 24.5499
13 1 0.0166667 0.45 0.0615845 -2.83237 0.0059871
14 1 0.0166667 0.55 0.0615845 -2.83237 0.0059871
17 1 0.05 0.45 -0.00413547 -2.47659 24.5499
22 1 0.05 0.55 -0.00413547 -2.47659 24.5499
77 1 0.0666667 0.5 0.0615845 -2.83237 0.0059871
83 1 0.116667 0.45 0.0615845 -2.83237 0.0059871
100 1 0.116667 0.55 0.0615845 -2.83237 0.0059871
102 1 0.1 0.5 -0.00413547 -2.47659 24.5499
103 1 0.15 0.45 -0.00413547 -2.47659 24.5499
104 1 0.15 0.55 -0.00413547 -2.47659 24.5499
229 1 0.166667 0.5 0.0615845 -2.83237 0.0059871
230 1 0.2 0.5 -0.00413547 -2.47659 24.5499
231 1 0.216667 0.45 0.0615845 -2.83237 0.0059871
232 1 0.216667 0.55 0.0615845 -2.83237 0.0059871
235 1 0.25 0.45 -0.00413547 -2.47659 24.5499
250 1 0.25 0.55 -0.00413547 -2.47659 24.5499
355 1 0.266667 0.5 0.0615845 -2.83237 0.0059871
361 1 0.316667 0.45 0.0615845 -2.83237 0.0059871
380 1 0.316667 0.55 0.0615845 -2.83237 0.0059871
382 1 0.3 0.5 -0.00413547 -2.47659 24.5499
383 1 0.35 0.45 -0.00413547 -2.47659 24.5499
384 1 0.35 0.55 -0.00413547 -2.47659 24.5499
509 1 0.366667 0.5 0.0615845 -2.83237 0.0059871
510 1 0.4 0.5 -0.00413547 -2.47659 24.5499
511 1 0.416667 0.45 0.0615845 -2.83237 0.0059871
512 1 0.416667 0.55 0.0615845 -2.83237 0.0059871
515 1 0.45 0.45 -0.00413547 -2.47659 24.5499
530 1 0.45 0.55 -0.00413547 -2.47659 24.5499
635 1 0.466667 0.5 0.0615845 -2.83237 0.0059871
662 1 0.5 0.5 -0.00413547 -2.47659 24.5499
641 1 0.516667 0.45 0.0615845 -2.83237 0.0059871
660 1 0.516667 0.55 0.0615845 -2.83237 0.0059871
663 1 0.55 0.45 -0.00413547 -2.47659 24.5499
664 1 0.55 0.55 -0.00413547 -2.47659 24.5499
789 1 0.566667 0.5 0.0615845 -2.83237 0.0059871
790 1 0.6 0.5 -0.00413547 -2.47659 24.5499
791 1 0.616667 0.45 0.0615845 -2.83237 0.0059871
792 1 0.616667 0.55 0.0615845 -2.83237 0.0059871
795 1 0.65 0.45 -0.00413547 -2.47659 24.5499
810 1 0.65 0.55 -0.00413547 -2.47659 24.5499
915 1 0.666667 0.5 0.0615845 -2.83237 0.0059871
921 1 0.716667 0.45 0.0615845 -2.83237 0.0059871
940 1 0.716667 0.55 0.0615845 -2.83237 0.0059871
942 1 0.7 0.5 -0.00413547 -2.47659 24.5499
943 1 0.75 0.45 -0.00413547 -2.47659 24.5499
944 1 0.75 0.55 -0.00413547 -2.47659 24.5499
1069 1 0.766667 0.5 0.0615845 -2.83237 0.0059871
1070 1 0.8 0.5 -0.00413547 -2.47659 24.5499
1071 1 0.816667 0.45 0.0615845 -2.83237 0.0059871
1072 1 0.816667 0.55 0.0615845 -2.83237 0.0059871
1075 1 0.85 0.45 -0.00413547 -2.47659 24.5499
1090 1 0.85 0.55 -0.00413547 -2.47659 24.5499
1195 1 0.866667 0.5 0.0615845 -2.83237 0.0059871
1201 1 0.916667 0.45 0.0615845 -2.83237 0.0059871
1220 1 0.916667 0.55 0.0615845 -2.83237 0.0059871
1222 1 0.9 0.5 -0.00413547 -2.47659 24.5499
1223 1 0.95 0.45 -0.00413547 -2.47659 24.5499
1224 1 0.95 0.55 -0.00413547 -2.47659 24.5499
1338 1 0.966667 0.5 0.0615845 -2.83237 0.0059871
18 1 0 0.7 -0.00413547 -2.47659 24.5499
19 1 0.0166667 0.65 0.0615845 -2.83237 0.0059871
21 1 0 0.6 -0.00413547 -2.47659 24.5499
23 1 0.05 0.65 -0.00413547 -2.47659 24.5499
95 1 0.0666667 0.7 0.0615845 -2.83237 0.0059871
98 1 0.0666667 0.6 0.0615845 -2.83237 0.0059871
99 1 0.1 0.6 -0.00413547 -2.47659 24.5499
101 1 0.116667 0.65 0.0615845 -2.83237 0.0059871
114 1 0.1 0.7 -0.00413547 -2.47659 24.5499
115 1 0.15 0.65 -0.00413547 -2.47659 24.5499
226 1 0.166667 0.6 0.0615845 -2.83237 0.0059871
245 1 0.166667 0.7 0.0615845 -2.83237 0.0059871
246 1 0.2 0.7 -0.00413547 -2.47659 24.5499
247 1 0.216667 0.65 0.0615845 -2.83237 0.0059871
249 1 0.2 0.6 -0.00413547 -2.47659 24.5499
251 1 0.25 0.65 -0.00413547 -2.47659 24.5499
375 1 0.266667 0.7 0.0615845 -2.83237 0.0059871
378 1 0.266667 0.6 0.0615845 -2.83237 0.0059871
379 1 0.3 0.6 -0.00413547 -2.47659 24.5499
381 1 0.316667 0.65 0.0615845 -2.83237 0.0059871
394 1 0.3 0.7 -0.00413547 -2.47659 24.5499
395 1 0.35 0.65 -0.00413547 -2.47659 24.5499
506 1 0.366667 0.6 0.0615845 -2.83237 0.0059871
525 1 0.366667 0.7 0.0615845 -2.83237 0.0059871
526 1 0.4 0.7 -0.00413547 -2.47659 24.5499
527 1 0.416667 0.65 0.0615845 -2.83237 0.0059871
529 1 0.4 0.6 -0.00413547 -2.47659 24.5499
531 1 0.45 0.65 -0.00413547 -2.47659 24.5499
655 1 0.466667 0.7 0.0615845 -2.83237 0.0059871
658 1 0.466667 0.6 0.0615845 -2.83237 0.0059871
659 1 0.5 0.6 -0.00413547 -2.47659 24.5499
674 1 0.5 0.7 -0.00413547 -2.47659 24.5499
661 1 0.516667 0.65 0.0615845 -2.83237 0.0059871
675 1 0.55 0.65 -0.00413547 -2.47659 24.5499
786 1 0.566667 0.6 0.0615845 -2.83237 0.0059871
805 1 0.566667 0.7 0.0615845 -2.83237 0.0059871
806 1 0.6 0.7 -0.00413547 -2.47659 24.5499
807 1 0.616667 0.65 0.0615845 -2.83237 0.0059871
809 1 0.6 0.6 -0.00413547 -2.47659 24.5499
811 1 0.65 0.65 -0.00413547 -2.47659 24.5499
935 1 0.666667 0.7 0.0615845 -2.83237 0.0059871
938 1 0.666667 0.6 0.0615845 -2.83237 0.0059871
939 1 0.7 0.6 -0.00413547 -2.47659 24.5499
941 1 0.716667 0.65 0.0615845 -2.83237 0.0059871
954 1 0.7 0.7 -0.00413547 -2.47659 24.5499
955 1 0.75 0.65 -0.00413547 -2.47659 24.5499
1066 1 0.766667 0.6 0.0615845 -2.83237 0.0059871
1085 1 0.766667 0.7 0.0615845 -2.83237 0.0059871
1086 1 0.8 0.7 -0.00413547 -2.47659 24.5499
1087 1 0.816667 0.65 0.0615845 -2.83237 0.0059871
1089 1 0.8 0.6 -0.00413547 -2.47659 24.5499
1091 1 0.85 0.65 -0.00413547 -2.47659 24.5499
1215 1 0.866667 0.7 0.0615845 -2.83237 0.0059871
1218 1 0.866667 0.6 0.0615845 -2.83237 0.0059871
1219 1 0.9 0.6 -0.00413547 -2.47659 24.5499
1221 1 0.916667 0.65 0.0615845 -2.83237 0.0059871
1234 1 0.9 0.7 -0.00413547 -2.47659 24.5499
1235 1 0.95 0.65 -0.00413547 -2.47659 24.5499
1335 1 0.966667 0.6 0.0615845 -2.83237 0.0059871
1348 1 0.966667 0.7 0.0615845 -2.83237 0.0059871
20 1 0.0166667 0.75 0.0615845 -2.83237 0.0059871
25 1 0.0166667 0.85 0.0615845 -2.83237 0.0059871
27 1 0 0.8 -0.00413547 -2.47659 24.5499
28 1 0.05 0.75 -0.00413547 -2.47659 24.5499
29 1 0.05 0.85 -0.00413547 -2.47659 24.5499
110 1 0.0666667 0.8 0.0615845 -2.83237 0.0059871
111 1 0.1 0.8 -0.00413547 -2.47659 24.5499
112 1 0.116667 0.75 0.0615845 -2.83237 0.0059871
113 1 0.116667 0.85 0.0615845 -2.83237 0.0059871
116 1 0.15 0.75 -0.00413547 -2.47659 24.5499
119 1 0.15 0.85 -0.00413547 -2.47659 24.5499
242 1 0.166667 0.8 0.0615845 -2.83237 0.0059871
248 1 0.216667 0.75 0.0615845 -2.83237 0.0059871
255 1 0.216667 0.85 0.0615845 -2.83237 0.0059871
257 1 0.2 0.8 -0.00413547 -2.47659 24.5499
258 1 0.25 0.75 -0.00413547 -2.47659 24.5499
259 1 0.25 0.85 -0.00413547 -2.47659 24.5499
390 1 0.266667 0.8 0.0615845 -2.83237 0.0059871
391 1 0.3 0.8 -0.00413547 -2.47659 24.5499
392 1 0.316667 0.75 0.0615845 -2.83237 0.0059871
393 1 0.316667 0.85 0.0615845 -2.83237 0.0059871
396 1 0.35 0.75 -0.00413547 -2.47659 24.5499
399 1 0.35 0.85 -0.00413547 -2.47659 24.5499
522 1 0.366667 0.8 0.0615845 -2.83237 0.0059871
528 1 0.416667 0.75 0.0615845 -2.83237 0.0059871
535 1 0.416667 0.85 0.0615845 -2.83237 0.0059871
537 1 0.4 0.8 -0.00413547 -2.47659 24.5499
538 1 0.45 0.75 -0.00413547 -2.47659 24.5499
539 1 0.45 0.85 -0.00413547 -2.47659 24.5499
670 1 0.466667 0.8 0.0615845 -2.83237 0.0059871
671 1 0.5 0.8 -0.00413547 -2.47659 24.5499
672 1 0.516667 0.75 0.0615845 -2.83237 0.0059871
673 1 0.516667 0.85 0.0615845 -2.83237 0.0059871
676 1 0.55 0.75 -0.00413547 -2.47659 24.5499
679 1 0.55 0.85 -0.00413547 -2.47659 24.5499
802 1 0.566667 0.8 0.0615845 -2.83237 0.0059871
808 1 0.616667 0.75 0.0615845 -2.83237 0.0059871
815 1 0.616667 0.85 0.0615845 -2.83237 0.0059871
817 1 0.6 0.8 -0.00413547 -2.47659 24.5499
818 1 0.65 0.75 -0.00413547 -2.47659 24.5499
819 1 0.65 0.85 -0.00413547 -2.47659 24.5499
950 1 0.666667 0.8 0.0615845 -2.83237 0.0059871
951 1 0.7 0.8 -0.00413547 -2.47659 24.5499
952 1 0.716667 0.75 0.0615845 -2.83237 0.0059871
953 1 0.716667 0.85 0.0615845 -2.83237 0.0059871
956 1 0.75 0.75 -0.00413547 -2.47659 24.5499
959 1 0.75 0.85 -0.00413547 -2.47659 24.5499
1082 1 0.766667 0.8 0.0615845 -2.83237 0.0059871
1088 1 0.816667 0.75 0.0615845 -2.83237 0.0059871
1095 1 0.816667 0.85 0.0615845 -2.83237 0.0059871
1097 1 0.8 0.8 -0.00413547 -2.47659 24.5499
1098 1 0.85 0.75 -0.00413547 -2.47659 24.5499
1099 1 0.85 0.85 -0.00413547 -2.47659 24.5499
1230 1 0.866667 0.8 0.0615845 -2.83237 0.0059871
1231 1 0.9 0.8 -0.00413547 -2.47659 24.5499
1232 1 0.916667 0.75 0.0615845 -2.83237 0.0059871
1233 1 0.916667 0.85 0.0615845 -2.83237 0.0059871
1236 1 0.95 0.75 -0.00413547 -2.47659 24.5499
1239 1 0.95 0.85 -0.00413547 -2.47659 24.5499
1345 1 0.966667 0.8 0.0615845 -2.83237 0.0059871
24 1 0 0.9 -0.00413547 -2.47659 24.5499
26 1 0.0166667 0.95 0.0615845 -2.83237 0.0059871
30 1 0.05 0.95 -0.00413547 -2.47659 24.5499
107 1 0.0666667 0.9 0.0615845 -2.83237 0.0059871
117 1 0.116667 0.95 0.0615845 -2.83237 0.0059871
118 1 0.1 0.9 -0.00413547 -2.47659 24.5499
120 1 0.15 0.95 -0.00413547 -2.47659 24.5499
253 1 0.166667 0.9 0.0615845 -2.83237 0.0059871
254 1 0.2 0.9 -0.00413547 -2.47659 24.5499
256 1 0.216667 0.95 0.0615845 -2.83237 0.0059871
260 1 0.25 0.95 -0.00413547 -2.47659 24.5499
387 1 0.266667 0.9 0.0615845 -2.83237 0.0059871
397 1 0.316667 0.95 0.0615845 -2.83237 0.0059871
398 1 0.3 0.9 -0.00413547 -2.47659 24.5499
400 1 0.35 0.95 -0.00413547 -2.47659 24.5499
533 1 0.366667 0.9 0.0615845 -2.83237 0.0059871
534 1 0.4 0.9 -0.00413547 -2.47659 24.5499
536 1 0.416667 0.95 0.0615845 -2.83237 0.0059871
540 1 0.45 0.95 -0.00413547 -2.47659 24.5499
667 1 0.466667 0.9 0.0615845 -2.83237 0.0059871
678 1 0.5 0.9 -0.00413547 -2.47659 24.5499
677 1 0.516667 0.95 0.0615845 -2.83237 0.0059871
680 1 0.55 0.95 -0.00413547 -2.47659 24.5499
813 1 0.566667 0.9 0.0615845 -2.83237 0.0059871
814 1 0.6 0.9 -0.00413547 -2.47659 24.5499
816 1 0.616667 0.95 0.0615845 -2.83237 0.0059871
820 1 0.65 0.95 -0.00413547 -2.47659 24.5499
947 1 0.666667 0.9 0.0615845 -2.83237 0.0059871
957 1 0.716667 0.95 0.0615845 -2.83237 0.0059871
958 1 0.7 0.9 -0.00413547 -2.47659 24.5499
960 1 0.75 0.95 -0.00413547 -2.47659 24.5499
1093 1 0.766667 0.9 0.0615845 -2.83237 0.0059871
1094 1 0.8 0.9 -0.00413547 -2.47659 24.5499
1096 1 0.816667 0.95 0.0615845 -2.83237 0.0059871
1100 1 0.85 0.95 -0.00413547 -2.47659 24.5499
1227 1 0.866667 0.9 0.0615845 -2.83237 0.0059871
1237 1 0.916667 0.95 0.0615845 -2.83237 0.0059871
1238 1 0.9 0.9 -0.00413547 -2.47659 24.5499
1240 1 0.95 0.95 -0.00413547 -2.47659 24.5499
1350 1 0.966667 0.9 0.0615845 -2.83237 0.0059871
31 1 0 0.1 0.195444 -2.84943 0.000739886
34 1 0 0 0.195444 -2.84943 0.000739886
35 1 0.0333333 0 0.128569 -2.8517 4.38118e-05
36 1 0.05 0.05 0.195444 -2.84943 0.000739886
44 1 0.0333333 0.1 0.128569 -2.8517 4.38118e-05
46 1 0.0833333 0.05 0.128569 -2.8517 4.38118e-05
135 1 0.1 0 0.195444 -2.84943 0.000739886
150 1 0.1 0.1 0.195444 -2.84943 0.000739886
151 1 0.133333 0.1 0.128569 -2.8517 4.38118e-05
152 1 0.15 0.05 0.195444 -2.84943 0.000739886
154 1 0.133333 0 0.128569 -2.8517 4.38118e-05
156 1 0.183333 0.05 0.128569 -2.8517 4.38118e-05
280 1 0.2 0.1 0.195444 -2.84943 0.000739886
283 1 0.2 0 0.195444 -2.84943 0.000739886
284 1 0.233333 0 0.128569 -2.8517 4.38118e-05
285 1 0.25 0.05 0.195444 -2.84943 0.000739886
303 1 0.233333 0.1 0.128569 -2.8517 4.38118e-05
305 1 0.283333 0.05 0.128569 -2.8517 4.38118e-05
415 1 0.3 0 0.195444 -2.84943 0.000739886
430 1 0.3 0.1 0.195444 -2.84943 0.000739886
431 1 0.333333 0.1 0.128569 -2.8517 4.38118e-05
434 1 0.333333 0 0.128569 -2.8517 4.38118e-05
432 1 0.35 0.05 0.195444 -2.84943 0.000739886
436 1 0.383333 0.05 0.128569 -2.8517 4.38118e-05
560 1 0.4 0.1 0.195444 -2.84943 0.000739886
563 1 0.4 0 0.195444 -2.84943 0.000739886
564 1 0.433333 0 0.128569 -2.8517 4.38118e-05
565 1 0.45 0.05 0.195444 -2.84943 0.000739886
583 1 0.433333 0.1 0.128569 -2.8517 4.38118e-05
585 1 0.483333 0.05 0.128569 -2.8517 4.38118e-05
695 1 0.5 0 0.195444 -2.84943 0.000739886
710 1 0.5 0.1 0.195444 -2.84943 0.000739886
711 1 0.533333 0.1 0.128569 -2.8517 4.38118e-05
712 1 0.55 0.05 0.195444 -2.84943 0.000739886
714 1 0.533333 0 0.128569 -2.8517 4.38118e-05
716 1 0.583333 0.05 0.128569 -2.8517 4.38118e-05
840 1 0.6 0.1 0.195444 -2.84943 0.000739886
843 1 0.6 0 0.195444 -2.84943 0.000739886
844 1 0.633333 0 0.128569 -2.8517 4.38118e-05
845 1 0.65 0.05 0.195444 -2.84943 0.000739886
863 1 0.633333 0.1 0.128569 -2.8517 4.38118e-05
865 1 0.683333 0.05 0.128569 -2.8517 4.38118e-05
975 1 0.7 0 0.195444 -2.84943 0.000739886
990 1 0.7 0.1 0.195444 -2.84943 0.000739886
991 1 0.733333 0.1 0.128569 -2.8517 4.38118e-05
992 1 0.75 0.05 0.195444 -2.84943 0.000739886
994 1 0.733333 0 0.128569 -2.8517 4.38118e-05
996 1 0.783333 0.05 0.128569 -2.8517 4.38118e-05
1120 1 0.8 0.1 0.195444 -2.84943 0.000739886
1123 1 0.8 0 0.195444 -2.84943 0.000739886
1124 1 0.833333 0 0.128569 -2.8517 4.38118e-05
1143 1 0.833333 0.1 0.128569 -2.8517 4.38118e-05
1125 1 0.85 0.05 0.195444 -2.84943 0.000739886
1145 1 0.883333 0.05 0.128569 -2.8517 4.38118e-05
1255 1 0.9 0 0.195444 -2.84943 0.000739886
1270 1 0.9 0.1 0.195444 -2.84943 0.000739886
1271 1 0.933333 0.1 0.128569 -2.8517 4.38118e-05
1272 1 0.95 0.05 0.195444 -2.84943 0.000739886
1274 1 0.933333 0 0.128569 -2.8517 4.38118e-05
1276 1 0.983333 0.05 0.128569 -2.8517 4.38118e-05
40 1 0 0.2 0.195444 -2.84943 0.000739886
41 1 0.0333333 0.2 0.128569 -2.8517 4.38118e-05
42 1 0.05 0.15 0.195444 -2.84943 0.000739886
43 1 0.05 0.25 0.195444 -2.84943 0.000739886
47 1 0.0833333 0.15 0.128569 -2.8517 4.38118e-05
60 1 0.0833333 0.25 0.128569 -2.8517 4.38118e-05
147 1 0.1 0.2 0.195444 -2.84943 0.000739886
153 1 0.15 0.15 0.195444 -2.84943 0.000739886
172 1 0.15 0.25 0.195444 -2.84943 0.000739886
174 1 0.133333 0.2 0.128569 -2.8517 4.38118e-05
176 1 0.183333 0.15 0.128569 -2.8517 4.38118e-05
177 1 0.183333 0.25 0.128569 -2.8517 4.38118e-05
299 1 0.2 0.2 0.195444 -2.84943 0.000739886
300 1 0.233333 0.2 0.128569 -2.8517 4.38118e-05
301 1 0.25 0.15 0.195444 -2.84943 0.000739886
302 1 0.25 0.25 0.195444 -2.84943 0.000739886
306 1 0.283333 0.15 0.128569 -2.8517 4.38118e-05
329 1 0.283333 0.25 0.128569 -2.8517 4.38118e-05
427 1 0.3 0.2 0.195444 -2.84943 0.000739886
454 1 0.333333 0.2 0.128569 -2.8517 4.38118e-05
433 1 0.35 0.15 0.195444 -2.84943 0.000739886
452 1 0.35 0.25 0.195444 -2.84943 0.000739886
456 1 0.383333 0.15 0.128569 -2.8517 4.38118e-05
457 1 0.383333 0.25 0.128569 -2.8517 4.38118e-05
579 1 0.4 0.2 0.195444 -2.84943 0.000739886
580 1 0.433333 0.2 0.128569 -2.8517 4.38118e-05
581 1 0.45 0.15 0.195444 -2.84943 0.000739886
582 1 0.45 0.25 0.195444 -2.84943 0.000739886
586 1 0.483333 0.15 0.128569 -2.8517 4.38118e-05
609 1 0.483333 0.25 0.128569 -2.8517 4.38118e-05
707 1 0.5 0.2 0.195444 -2.84943 0.000739886
713 1 0.55 0.15 0.195444 -2.84943 0.000739886
732 1 0.55 0.25 0.195444 -2.84943 0.000739886
734 1 0.533333 0.2 0.128569 -2.8517 4.38118e-05
736 1 0.583333 0.15 0.128569 -2.8517 4.38118e-05
737 1 0.583333 0.25 0.128569 -2.8517 4.38118e-05
859 1 0.6 0.2 0.195444 -2.84943 0.000739886
860 1 0.633333 0.2 0.128569 -2.8517 4.38118e-05
861 1 0.65 0.15 0.195444 -2.84943 0.000739886
862 1 0.65 0.25 0.195444 -2.84943 0.000739886
866 1 0.683333 0.15 0.128569 -2.8517 4.38118e-05
889 1 0.683333 0.25 0.128569 -2.8517 4.38118e-05
987 1 0.7 0.2 0.195444 -2.84943 0.000739886
993 1 0.75 0.15 0.195444 -2.84943 0.000739886
1012 1 0.75 0.25 0.195444 -2.84943 0.000739886
1014 1 0.733333 0.2 0.128569 -2.8517 4.38118e-05
1016 1 0.783333 0.15 0.128569 -2.8517 4.38118e-05
1017 1 0.783333 0.25 0.128569 -2.8517 4.38118e-05
1139 1 0.8 0.2 0.195444 -2.84943 0.000739886
1140 1 0.833333 0.2 0.128569 -2.8517 4.38118e-05
1141 1 0.85 0.15 0.195444 -2.84943 0.000739886
1142 1 0.85 0.25 0.195444 -2.84943 0.000739886
1146 1 0.883333 0.15 0.128569 -2.8517 4.38118e-05
1169 1 0.883333 0.25 0.128569 -2.8517 4.38118e-05
1267 1 0.9 0.2 0.195444 -2.84943 0.000739886
1273 1 0.95 0.15 0.195444 -2.84943 0.000739886
1292 1 0.95 0.25 0.195444 -2.84943 0.000739886
1294 1 0.933333 0.2 0.128569 -2.8517 4.38118e-05
1296 1 0.983333 0.15 0.128569 -2.8517 4.38118e-05
1297 1 0.983333 0.25 0.128569 -2.8517 4.38118e-05
37 1 0 0.3 0.195444 -2.84943 0.000739886
54 1 8.86546e-18 0.4 0.195444 -2.84943 0.000739886
55 1 0.0333333 0.4 0.128569 -2.8517 4.38118e-05
56 1 0.05 0.35 0.195444 -2.84943 0.000739886
58 1 0.0333333 0.3 0.128569 -2.8517 4.38118e-05
61 1 0.0833333 0.35 0.128569 -2.8517 4.38118e-05
167 1 0.1 0.4 0.195444 -2.84943 0.000739886
170 1 0.1 0.3 0.195444 -2.84943 0.000739886
171 1 0.133333 0.3 0.128569 -2.8517 4.38118e-05
173 1 0.15 0.35 0.195444 -2.84943 0.000739886
201 1 0.133333 0.4 0.128569 -2.8517 4.38118e-05
203 1 0.183333 0.35 0.128569 -2.8517 4.38118e-05
296 1 0.2 0.3 0.195444 -2.84943 0.000739886
323 1 0.2 0.4 0.195444 -2.84943 0.000739886
324 1 0.233333 0.4 0.128569 -2.8517 4.38118e-05
325 1 0.25 0.35 0.195444 -2.84943 0.000739886
327 1 0.233333 0.3 0.128569 -2.8517 4.38118e-05
330 1 0.283333 0.35 0.128569 -2.8517 4.38118e-05
447 1 0.3 0.4 0.195444 -2.84943 0.000739886
450 1 0.3 0.3 0.195444 -2.84943 0.000739886
451 1 0.333333 0.3 0.128569 -2.8517 4.38118e-05
481 1 0.333333 0.4 0.128569 -2.8517 4.38118e-05
453 1 0.35 0.35 0.195444 -2.84943 0.000739886
483 1 0.383333 0.35 0.128569 -2.8517 4.38118e-05
576 1 0.4 0.3 0.195444 -2.84943 0.000739886
603 1 0.4 0.4 0.195444 -2.84943 0.000739886
604 1 0.433333 0.4 0.128569 -2.8517 4.38118e-05
605 1 0.45 0.35 0.195444 -2.84943 0.000739886
607 1 0.433333 0.3 0.128569 -2.8517 4.38118e-05
610 1 0.483333 0.35 0.128569 -2.8517 4.38118e-05
727 1 0.5 0.4 0.195444 -2.84943 0.000739886
730 1 0.5 0.3 0.195444 -2.84943 0.000739886
731 1 0.533333 0.3 0.128569 -2.8517 4.38118e-05
733 1 0.55 0.35 0.195444 -2.84943 0.000739886
761 1 0.533333 0.4 0.128569 -2.8517 4.38118e-05
763 1 0.583333 0.35 0.128569 -2.8517 4.38118e-05
856 1 0.6 0.3 0.195444 -2.84943 0.000739886
883 1 0.6 0.4 0.195444 -2.84943 0.000739886
884 1 0.633333 0.4 0.128569 -2.8517 4.38118e-05
885 1 0.65 0.35 0.195444 -2.84943 0.000739886
887 1 0.633333 0.3 0.128569 -2.8517 4.38118e-05
890 1 0.683333 0.35 0.128569 -2.8517 4.38118e-05
1007 1 0.7 0.4 0.195444 -2.84943 0.000739886
1010 1 0.7 0.3 0.195444 -2.84943 0.000739886
1011 1 0.733333 0.3 0.128569 -2.8517 4.38118e-05
1013 1 0.75 0.35 0.195444 -2.84943 0.000739886
1041 1 0.733333 0.4 0.128569 -2.8517 4.38118e-05
1043 1 0.783333 0.35 0.128569 -2.8517 4.38118e-05
1136 1 0.8 0.3 0.195444 -2.84943 0.000739886
1163 1 0.8 0.4 0.195444 -2.84943 0.000739886
1164 1 0.833333 0.4 0.128569 -2.8517 4.38118e-05
1167 1 0.833333 0.3 0.128569 -2.8517 4.38118e-05
1165 1 0.85 0.35 0.195444 -2.84943 0.000739886
1170 1 0.883333 0.35 0.128569 -2.8517 4.38118e-05
1287 1 0.9 0.4 0.195444 -2.84943 0.000739886
1290 1 0.9 0.3 0.195444 -2.84943 0.000739886
1291 1 0.933333 0.3 0.128569 -2.8517 4.38118e-05
1293 1 0.95 0.35 0.195444 -2.84943 0.000739886
1316 1 0.933333 0.4 0.128569 -2.8517 4.38118e-05
1318 1 0.983333 0.35 0.128569 -2.8517 4.38118e-05
51 1 0 0.5 0.195444 -2.84943 0.000739886
57 1 0.05 0.45 0.195444 -2.84943 0.000739886
74 1 0.05 0.55 0.195444 -2.84943 0.000739886
76 1 0.0333333 0.5 0.128569 -2.8517 4.38118e-05
78 1 0.0833333 0.45 0.128569 -2.8517 4.38118e-05
79 1 0.0833333 0.55 0.128569 -2.8517 4.38118e-05
197 1 0.1 0.5 0.195444 -2.84943 0.000739886
198 1 0.133333 0.5 0.128569 -2.8517 4.38118e-05
199 1 0.15 0.45 0.195444 -2.84943 0.000739886
200 1 0.15 0.55 0.195444 -2.84943 0.000739886
204 1 0.183333 0.45 0.128569 -2.8517 4.38118e-05
227 1 0.183333 0.55 0.128569 -2.8517 4.38118e-05
320 1 0.2 0.5 0.195444 -2.84943 0.000739886
326 1 0.25 0.45 0.195444 -2.84943 0.000739886
352 1 0.25 0.55 0.195444 -2.84943 0.000739886
354 1 0.233333 0.5 0.128569 -2.8517 4.38118e-05
356 1 0.283333 0.45 0.128569 -2.8517 4.38118e-05
357 1 0.283333 0.55 0.128569 -2.8517 4.38118e-05
477 1 0.3 0.5 0.195444 -2.84943 0.000739886
478 1 0.333333 0.5 0.128569 -2.8517 4.38118e-05
479 1 0.35 0.45 0.195444 -2.84943 0.000739886
480 1 0.35 0.55 0.195444 -2.84943 0.000739886
484 1 0.383333 0.45 0.128569 -2.8517 4.38118e-05
507 1 0.383333 0.55 0.128569 -2.8517 4.38118e-05
600 1 0.4 0.5 0.195444 -2.84943 0.000739886
606 1 0.45 0.45 0.195444 -2.84943 0.000739886
632 1 0.45 0.55 0.195444 -2.84943 0.000739886
634 1 0.433333 0.5 0.128569 -2.8517 4.38118e-05
636 1 0.483333 0.45 0.128569 -2.8517 4.38118e-05
637 1 0.483333 0.55 0.128569 -2.8517 4.38118e-05
757 1 0.5 0.5 0.195444 -2.84943 0.000739886
758 1 0.533333 0.5 0.128569 -2.8517 4.38118e-05
759 1 0.55 0.45 0.195444 -2.84943 0.000739886
760 1 0.55 0.55 0.195444 -2.84943 0.000739886
764 1 0.583333 0.45 0.128569 -2.8517 4.38118e-05
787 1 0.583333 0.55 0.128569 -2.8517 4.38118e-05
880 1 0.6 0.5 0.195444 -2.84943 0.000739886
886 1 0.65 0.45 0.195444 -2.84943 0.000739886
912 1 0.65 0.55 0.195444 -2.84943 0.000739886
914 1 0.633333 0.5 0.128569 -2.8517 4.38118e-05
916 1 0.683333 0.45 0.128569 -2.8517 4.38118e-05
917 1 0.683333 0.55 0.128569 -2.8517 4.38118e-05
1037 1 0.7 0.5 0.195444 -2.84943 0.000739886
1038 1 0.733333 0.5 0.128569 -2.8517 4.38118e-05
1039 1 0.75 0.45 0.195444 -2.84943 0.000739886
1040 1 0.75 0.55 0.195444 -2.84943 0.000739886
1044 1 0.783333 0.45 0.128569 -2.8517 4.38118e-05
1067 1 0.783333 0.55 0.128569 -2.8517 4.38118e-05
1160 1 0.8 0.5 0.195444 -2.84943 0.000739886
1194 1 0.833333 0.5 0.128569 -2.8517 4.38118e-05
1166 1 0.85 0.45 0.195444 -2.84943 0.000739886
1192 1 0.85 0.55 0.195444 -2.84943 0.000739886
1196 1 0.883333 0.45 0.128569 -2.8517 4.38118e-05
1197 1 0.883333 0.55 0.128569 -2.8517 4.38118e-05
1312 1 0.9 0.5 0.195444 -2.84943 0.000739886
1313 1 0.933333 0.5 0.128569 -2.8517 4.38118e-05
1314 1 0.95 0.45 0.195444 -2.84943 0.000739886
1315 1 0.95 0.55 0.195444 -2.84943 0.000739886
1319 1 0.983333 0.45 0.128569 -2.8517 4.38118e-05
1336 1 0.983333 0.55 0.128569 -2.8517 4.38118e-05