ITEM: TIMESTEP
47
ITEM: NUMBER OF ATOMS
3200
ITEM: BOX BOUNDS pp pp ss
0.0000000000000000e+00 5.0092067021360698e+01
0.0000000000000000e+00 2.8920668379047399e+01
3.8451742731260487e-02 3.5381988531723906e+01
ITEM: ATOMS id type xs ys zs c_peratom c_csym
1 1 0 0.1 -0.00519092 -2.4771 24.5272
2 1 0.0166667 0.05 0.0604829 -2.83189 0.00388722
4 1 0 0 -0.00519092 -2.4771 24.5272
5 1 0.05 0.05 -0.00519092 -2.4771 24.5272
45 1 0.0666667 0.1 0.0604829 -2.83189 0.00388722
48 1 0.0666667 0 0.0604829 -2.83189 0.00388722
49 1 0.1 0 -0.00519092 -2.4771 24.5272
50 1 0.116667 0.05 0.0604829 -2.83189 0.00388722
66 1 0.1 0.1 -0.00519092 -2.4771 24.5272
67 1 0.15 0.05 -0.00519092 -2.4771 24.5272
155 1 0.166667 0 0.0604829 -2.83189 0.00388722
178 1 0.166667 0.1 0.0604829 -2.83189 0.00388722
179 1 0.2 0.1 -0.00519092 -2.4771 24.5272
180 1 0.216667 0.05 0.0604829 -2.83189 0.00388722
182 1 0.2 0 -0.00519092 -2.4771 24.5272
183 1 0.25 0.05 -0.00519092 -2.4771 24.5272
304 1 0.266667 0.1 0.0604829 -2.83189 0.00388722
307 1 0.266667 0 0.0604829 -2.83189 0.00388722
308 1 0.3 0 -0.00519092 -2.4771 24.5272
309 1 0.316667 0.05 0.0604829 -2.83189 0.00388722
335 1 0.3 0.1 -0.00519092 -2.4771 24.5272
336 1 0.35 0.05 -0.00519092 -2.4771 24.5272
435 1 0.366667 0 0.0604829 -2.83189 0.00388722
458 1 0.366667 0.1 0.0604829 -2.83189 0.00388722
459 1 0.4 0.1 -0.00519092 -2.4771 24.5272
460 1 0.416667 0.05 0.0604829 -2.83189 0.00388722
462 1 0.4 0 -0.00519092 -2.4771 24.5272
463 1 0.45 0.05 -0.00519092 -2.4771 24.5272
584 1 0.466667 0.1 0.0604829 -2.83189 0.00388722
587 1 0.466667 0 0.0604829 -2.83189 0.00388722
588 1 0.5 0 -0.00519092 -2.4771 24.5272
615 1 0.5 0.1 -0.00519092 -2.4771 24.5272
589 1 0.516667 0.05 0.0604829 -2.83189 0.00388722
616 1 0.55 0.05 -0.00519092 -2.4771 24.5272
715 1 0.566667 0 0.0604829 -2.83189 0.00388722
738 1 0.566667 0.1 0.0604829 -2.83189 0.00388722
739 1 0.6 0.1 -0.00519092 -2.4771 24.5272
740 1 0.616667 0.05 0.0604829 -2.83189 0.00388722
742 1 0.6 0 -0.00519092 -2.4771 24.5272
743 1 0.65 0.05 -0.00519092 -2.4771 24.5272
864 1 0.666667 0.1 0.0604829 -2.83189 0.00388722
867 1 0.666667 0 0.0604829 -2.83189 0.00388722
868 1 0.7 0 -0.00519092 -2.4771 24.5272
869 1 0.716667 0.05 0.0604829 -2.83189 0.00388722
895 1 0.7 0.1 -0.00519092 -2.4771 24.5272
896 1 0.75 0.05 -0.00519092 -2.4771 24.5272
995 1 0.766667 0 0.0604829 -2.83189 0.00388722
1018 1 0.766667 0.1 0.0604829 -2.83189 0.00388722
1019 1 0.8 0.1 -0.00519092 -2.4771 24.5272
1020 1 0.816667 0.05 0.0604829 -2.83189 0.00388722
1022 1 0.8 0 -0.00519092 -2.4771 24.5272
1023 1 0.85 0.05 -0.00519092 -2.4771 24.5272
1144 1 0.866667 0.1 0.0604829 -2.83189 0.00388722
1147 1 0.866667 0 0.0604829 -2.83189 0.00388722
1148 1 0.9 0 -0.00519092 -2.4771 24.5272
1149 1 0.916667 0.05 0.0604829 -2.83189 0.00388722
1175 1 0.9 0.1 -0.00519092 -2.4771 24.5272
1176 1 0.95 0.05 -0.00519092 -2.4771 24.5272
1275 1 0.966667 0 0.0604829 -2.83189 0.00388722
1298 1 0.966667 0.1 0.0604829 -2.83189 0.00388722
3 1 0.0166667 0.15 0.0604829 -2.83189 0.00388722
7 1 0.0166667 0.25 0.0604829 -2.83189 0.00388722
9 1 0 0.2 -0.00519092 -2.4771 24.5272
10 1 0.05 0.15 -0.00519092 -2.4771 24.5272
11 1 0.05 0.25 -0.00519092 -2.4771 24.5272
62 1 0.0666667 0.2 0.0604829 -2.83189 0.00388722
63 1 0.1 0.2 -0.00519092 -2.4771 24.5272
64 1 0.116667 0.15 0.0604829 -2.83189 0.00388722
65 1 0.116667 0.25 0.0604829 -2.83189 0.00388722
68 1 0.15 0.15 -0.00519092 -2.4771 24.5272
85 1 0.15 0.25 -0.00519092 -2.4771 24.5272
175 1 0.166667 0.2 0.0604829 -2.83189 0.00388722
181 1 0.216667 0.15 0.0604829 -2.83189 0.00388722
207 1 0.216667 0.25 0.0604829 -2.83189 0.00388722
209 1 0.2 0.2 -0.00519092 -2.4771 24.5272
210 1 0.25 0.15 -0.00519092 -2.4771 24.5272
211 1 0.25 0.25 -0.00519092 -2.4771 24.5272
331 1 0.266667 0.2 0.0604829 -2.83189 0.00388722
332 1 0.3 0.2 -0.00519092 -2.4771 24.5272
333 1 0.316667 0.15 0.0604829 -2.83189 0.00388722
334 1 0.316667 0.25 0.0604829 -2.83189 0.00388722
337 1 0.35 0.15 -0.00519092 -2.4771 24.5272
363 1 0.35 0.25 -0.00519092 -2.4771 24.5272
455 1 0.366667 0.2 0.0604829 -2.83189 0.00388722
461 1 0.416667 0.15 0.0604829 -2.83189 0.00388722
487 1 0.416667 0.25 0.0604829 -2.83189 0.00388722
489 1 0.4 0.2 -0.00519092 -2.4771 24.5272
490 1 0.45 0.15 -0.00519092 -2.4771 24.5272
491 1 0.45 0.25 -0.00519092 -2.4771 24.5272
611 1 0.466667 0.2 0.0604829 -2.83189 0.00388722
612 1 0.5 0.2 -0.00519092 -2.4771 24.5272
613 1 0.516667 0.15 0.0604829 -2.83189 0.00388722
614 1 0.516667 0.25 0.0604829 -2.83189 0.00388722
617 1 0.55 0.15 -0.00519092 -2.4771 24.5272
643 1 0.55 0.25 -0.00519092 -2.4771 24.5272
735 1 0.566667 0.2 0.0604829 -2.83189 0.00388722
741 1 0.616667 0.15 0.0604829 -2.83189 0.00388722
767 1 0.616667 0.25 0.0604829 -2.83189 0.00388722
769 1 0.6 0.2 -0.00519092 -2.4771 24.5272
770 1 0.65 0.15 -0.00519092 -2.4771 24.5272
771 1 0.65 0.25 -0.00519092 -2.4771 24.5272
891 1 0.666667 0.2 0.0604829 -2.83189 0.00388722
892 1 0.7 0.2 -0.00519092 -2.4771 24.5272
893 1 0.716667 0.15 0.0604829 -2.83189 0.00388722
894 1 0.716667 0.25 0.0604829 -2.83189 0.00388722
897 1 0.75 0.15 -0.00519092 -2.4771 24.5272
923 1 0.75 0.25 -0.00519092 -2.4771 24.5272
1015 1 0.766667 0.2 0.0604829 -2.83189 0.00388722
1021 1 0.816667 0.15 0.0604829 -2.83189 0.00388722
1047 1 0.816667 0.25 0.0604829 -2.83189 0.00388722
1049 1 0.8 0.2 -0.00519092 -2.4771 24.5272
1050 1 0.85 0.15 -0.00519092 -2.4771 24.5272
1051 1 0.85 0.25 -0.00519092 -2.4771 24.5272
1171 1 0.866667 0.2 0.0604829 -2.83189 0.00388722
1172 1 0.9 0.2 -0.00519092 -2.4771 24.5272
1173 1 0.916667 0.15 0.0604829 -2.83189 0.00388722
1174 1 0.916667 0.25 0.0604829 -2.83189 0.00388722
1177 1 0.95 0.15 -0.00519092 -2.4771 24.5272
1203 1 0.95 0.25 -0.00519092 -2.4771 24.5272
1295 1 0.966667 0.2 0.0604829 -2.83189 0.00388722
6 1 0 0.3 -0.00519092 -2.4771 24.5272
8 1 0.0166667 0.35 0.0604829 -2.83189 0.00388722
15 1 0 0.4 -0.00519092 -2.4771 24.5272
16 1 0.05 0.35 -0.00519092 -2.4771 24.5272
59 1 0.0666667 0.3 0.0604829 -2.83189 0.00388722
80 1 0.0666667 0.4 0.0604829 -2.83189 0.00388722
81 1 0.1 0.4 -0.00519092 -2.4771 24.5272
82 1 0.116667 0.35 0.0604829 -2.83189 0.00388722
84 1 0.1 0.3 -0.00519092 -2.4771 24.5272
86 1 0.15 0.35 -0.00519092 -2.4771 24.5272
202 1 0.166667 0.4 0.0604829 -2.83189 0.00388722
205 1 0.166667 0.3 0.0604829 -2.83189 0.00388722
206 1 0.2 0.3 -0.00519092 -2.4771 24.5272
208 1 0.216667 0.35 0.0604829 -2.83189 0.00388722
233 1 0.2 0.4 -0.00519092 -2.4771 24.5272
234 1 0.25 0.35 -0.00519092 -2.4771 24.5272
328 1 0.266667 0.3 0.0604829 -2.83189 0.00388722
358 1 0.266667 0.4 0.0604829 -2.83189 0.00388722
359 1 0.3 0.4 -0.00519092 -2.4771 24.5272
360 1 0.316667 0.35 0.0604829 -2.83189 0.00388722
362 1 0.3 0.3 -0.00519092 -2.4771 24.5272
364 1 0.35 0.35 -0.00519092 -2.4771 24.5272
482 1 0.366667 0.4 0.0604829 -2.83189 0.00388722
485 1 0.366667 0.3 0.0604829 -2.83189 0.00388722
486 1 0.4 0.3 -0.00519092 -2.4771 24.5272
488 1 0.416667 0.35 0.0604829 -2.83189 0.00388722
513 1 0.4 0.4 -0.00519092 -2.4771 24.5272
514 1 0.45 0.35 -0.00519092 -2.4771 24.5272
608 1 0.466667 0.3 0.0604829 -2.83189 0.00388722
638 1 0.466667 0.4 0.0604829 -2.83189 0.00388722
639 1 0.5 0.4 -0.00519092 -2.4771 24.5272
642 1 0.5 0.3 -0.00519092 -2.4771 24.5272
640 1 0.516667 0.35 0.0604829 -2.83189 0.00388722
644 1 0.55 0.35 -0.00519092 -2.4771 24.5272
762 1 0.566667 0.4 0.0604829 -2.83189 0.00388722
765 1 0.566667 0.3 0.0604829 -2.83189 0.00388722
766 1 0.6 0.3 -0.00519092 -2.4771 24.5272
768 1 0.616667 0.35 0.0604829 -2.83189 0.00388722
793 1 0.6 0.4 -0.00519092 -2.4771 24.5272
794 1 0.65 0.35 -0.00519092 -2.4771 24.5272
888 1 0.666667 0.3 0.0604829 -2.83189 0.00388722
918 1 0.666667 0.4 0.0604829 -2.83189 0.00388722
919 1 0.7 0.4 -0.00519092 -2.4771 24.5272
920 1 0.716667 0.35 0.0604829 -2.83189 0.00388722
922 1 0.7 0.3 -0.00519092 -2.4771 24.5272
924 1 0.75 0.35 -0.00519092 -2.4771 24.5272
1042 1 0.766667 0.4 0.0604829 -2.83189 0.00388722
1045 1 0.766667 0.3 0.0604829 -2.83189 0.00388722
1046 1 0.8 0.3 -0.00519092 -2.4771 24.5272
1048 1 0.816667 0.35 0.0604829 -2.83189 0.00388722
1073 1 0.8 0.4 -0.00519092 -2.4771 24.5272
1074 1 0.85 0.35 -0.00519092 -2.4771 24.5272
1168 1 0.866667 0.3 0.0604829 -2.83189 0.00388722
1198 1 0.866667 0.4 0.0604829 -2.83189 0.00388722
1199 1 0.9 0.4 -0.00519092 -2.4771 24.5272
1200 1 0.916667 0.35 0.0604829 -2.83189 0.00388722
1202 1 0.9 0.3 -0.00519092 -2.4771 24.5272
1204 1 0.95 0.35 -0.00519092 -2.4771 24.5272
1317 1 0.966667 0.4 0.0604829 -2.83189 0.00388722
1320 1 0.966667 0.3 0.0604829 -2.83189 0.00388722
12 1 0 0.5 -0.00519092 -2.4771 24.5272
13 1 0.0166667 0.45 0.0604829 -2.83189 0.00388722
14 1 0.0166667 0.55 0.0604829 -2.83189 0.00388722
17 1 0.05 0.45 -0.00519092 -2.4771 24.5272
22 1 0.05 0.55 -0.00519092 -2.4771 24.5272
77 1 0.0666667 0.5 0.0604829 -2.83189 0.00388722
83 1 0.116667 0.45 0.0604829 -2.83189 0.00388722
100 1 0.116667 0.55 0.0604829 -2.83189 0.00388722
102 1 0.1 0.5 -0.00519092 -2.4771 24.5272
103 1 0.15 0.45 -0.00519092 -2.4771 24.5272
104 1 0.15 0.55 -0.00519092 -2.4771 24.5272
229 1 0.166667 0.5 0.0604829 -2.83189 0.00388722
230 1 0.2 0.5 -0.00519092 -2.4771 24.5272
231 1 0.216667 0.45 0.0604829 -2.83189 0.00388722
232 1 0.216667 0.55 0.0604829 -2.83189 0.00388722
235 1 0.25 0.45 -0.00519092 -2.4771 24.5272
250 1 0.25 0.55 -0.00519092 -2.4771 24.5272
355 1 0.266667 0.5 0.0604829 -2.83189 0.00388722
361 1 0.316667 0.45 0.0604829 -2.83189 0.00388722
380 1 0.316667 0.55 0.0604829 -2.83189 0.00388722
382 1 0.3 0.5 -0.00519092 -2.4771 24.5272
383 1 0.35 0.45 -0.00519092 -2.4771 24.5272
384 1 0.35 0.55 -0.00519092 -2.4771 24.5272
509 1 0.366667 0.5 0.0604829 -2.83189 0.00388722
510 1 0.4 0.5 -0.00519092 -2.4771 24.5272
511 1 0.416667 0.45 0.0604829 -2.83189 0.00388722
512 1 0.416667 0.55 0.0604829 -2.83189 0.00388722
515 1 0.45 0.45 -0.00519092 -2.4771 24.5272
530 1 0.45 0.55 -0.00519092 -2.4771 24.5272
635 1 0.466667 0.5 0.0604829 -2.83189 0.00388722
662 1 0.5 0.5 -0.00519092 -2.4771 24.5272
641 1 0.516667 0.45 0.0604829 -2.83189 0.00388722
660 1 0.516667 0.55 0.0604829 -2.83189 0.00388722
663 1 0.55 0.45 -0.00519092 -2.4771 24.5272
664 1 0.55 0.55 -0.00519092 -2.4771 24.5272
789 1 0.566667 0.5 0.0604829 -2.83189 0.00388722
790 1 0.6 0.5 -0.00519092 -2.4771 24.5272
791 1 0.616667 0.45 0.0604829 -2.83189 0.00388722
792 1 0.616667 0.55 0.0604829 -2.83189 0.00388722
795 1 0.65 0.45 -0.00519092 -2.4771 24.5272
810 1 0.65 0.55 -0.00519092 -2.4771 24.5272
915 1 0.666667 0.5 0.0604829 -2.83189 0.00388722
921 1 0.716667 0.45 0.0604829 -2.83189 0.00388722
940 1 0.716667 0.55 0.0604829 -2.83189 0.00388722
942 1 0.7 0.5 -0.00519092 -2.4771 24.5272
943 1 0.75 0.45 -0.00519092 -2.4771 24.5272
944 1 0.75 0.55 -0.00519092 -2.4771 24.5272
1069 1 0.766667 0.5 0.0604829 -2.83189 0.00388722
1070 1 0.8 0.5 -0.00519092 -2.4771 24.5272
1071 1 0.816667 0.45 0.0604829 -2.83189 0.00388722
1072 1 0.816667 0.55 0.0604829 -2.83189 0.00388722
1075 1 0.85 0.45 -0.00519092 -2.4771 24.5272
1090 1 0.85 0.55 -0.00519092 -2.4771 24.5272
1195 1 0.866667 0.5 0.0604829 -2.83189 0.00388722
1201 1 0.916667 0.45 0.0604829 -2.83189 0.00388722
1220 1 0.916667 0.55 0.0604829 -2.83189 0.00388722
1222 1 0.9 0.5 -0.00519092 -2.4771 24.5272
1223 1 0.95 0.45 -0.00519092 -2.4771 24.5272
1224 1 0.95 0.55 -0.00519092 -2.4771 24.5272
1338 1 0.966667 0.5 0.0604829 -2.83189 0.00388722
18 1 0 0.7 -0.00519092 -2.4771 24.5272
19 1 0.0166667 0.65 0.0604829 -2.83189 0.00388722
21 1 0 0.6 -0.00519092 -2.4771 24.5272
23 1 0.05 0.65 -0.00519092 -2.4771 24.5272
95 1 0.0666667 0.7 0.0604829 -2.83189 0.00388722
98 1 0.0666667 0.6 0.0604829 -2.83189 0.00388722
99 1 0.1 0.6 -0.00519092 -2.4771 24.5272
101 1 0.116667 0.65 0.0604829 -2.83189 0.00388722
114 1 0.1 0.7 -0.00519092 -2.4771 24.5272
115 1 0.15 0.65 -0.00519092 -2.4771 24.5272
226 1 0.166667 0.6 0.0604829 -2.83189 0.00388722
245 1 0.166667 0.7 0.0604829 -2.83189 0.00388722
246 1 0.2 0.7 -0.00519092 -2.4771 24.5272
247 1 0.216667 0.65 0.0604829 -2.83189 0.00388722
249 1 0.2 0.6 -0.00519092 -2.4771 24.5272
251 1 0.25 0.65 -0.00519092 -2.4771 24.5272
375 1 0.266667 0.7 0.0604829 -2.83189 0.00388722
378 1 0.266667 0.6 0.0604829 -2.83189 0.00388722
379 1 0.3 0.6 -0.00519092 -2.4771 24.5272
381 1 0.316667 0.65 0.0604829 -2.83189 0.00388722
394 1 0.3 0.7 -0.00519092 -2.4771 24.5272
395 1 0.35 0.65 -0.00519092 -2.4771 24.5272
506 1 0.366667 0.6 0.0604829 -2.83189 0.00388722
525 1 0.366667 0.7 0.0604829 -2.83189 0.00388722
526 1 0.4 0.7 -0.00519092 -2.4771 24.5272
527 1 0.416667 0.65 0.0604829 -2.83189 0.00388722
529 1 0.4 0.6 -0.00519092 -2.4771 24.5272
531 1 0.45 0.65 -0.00519092 -2.4771 24.5272
655 1 0.466667 0.7 0.0604829 -2.83189 0.00388722
658 1 0.466667 0.6 0.0604829 -2.83189 0.00388722
659 1 0.5 0.6 -0.00519092 -2.4771 24.5272
674 1 0.5 0.7 -0.00519092 -2.4771 24.5272
661 1 0.516667 0.65 0.0604829 -2.83189 0.00388722
675 1 0.55 0.65 -0.00519092 -2.4771 24.5272
786 1 0.566667 0.6 0.0604829 -2.83189 0.00388722
805 1 0.566667 0.7 0.0604829 -2.83189 0.00388722
806 1 0.6 0.7 -0.00519092 -2.4771 24.5272
807 1 0.616667 0.65 0.0604829 -2.83189 0.00388722
809 1 0.6 0.6 -0.00519092 -2.4771 24.5272
811 1 0.65 0.65 -0.00519092 -2.4771 24.5272
935 1 0.666667 0.7 0.0604829 -2.83189 0.00388722
938 1 0.666667 0.6 0.0604829 -2.83189 0.00388722
939 1 0.7 0.6 -0.00519092 -2.4771 24.5272
941 1 0.716667 0.65 0.0604829 -2.83189 0.00388722
954 1 0.7 0.7 -0.00519092 -2.4771 24.5272
955 1 0.75 0.65 -0.00519092 -2.4771 24.5272
1066 1 0.766667 0.6 0.0604829 -2.83189 0.00388722
1085 1 0.766667 0.7 0.0604829 -2.83189 0.00388722
1086 1 0.8 0.7 -0.00519092 -2.4771 24.5272
1087 1 0.816667 0.65 0.0604829 -2.83189 0.00388722
1089 1 0.8 0.6 -0.00519092 -2.4771 24.5272
1091 1 0.85 0.65 -0.00519092 -2.4771 24.5272
1215 1 0.866667 0.7 0.0604829 -2.83189 0.00388722
1218 1 0.866667 0.6 0.0604829 -2.83189 0.00388722
1219 1 0.9 0.6 -0.00519092 -2.4771 24.5272
1221 1 0.916667 0.65 0.0604829 -2.83189 0.00388722
1234 1 0.9 0.7 -0.00519092 -2.4771 24.5272
1235 1 0.95 0.65 -0.00519092 -2.4771 24.5272
1335 1 0.966667 0.6 0.0604829 -2.83189 0.00388722
1348 1 0.966667 0.7 0.0604829 -2.83189 0.00388722
20 1 0.0166667 0.75 0.0604829 -2.83189 0.00388722
25 1 0.0166667 0.85 0.0604829 -2.83189 0.00388722
27 1 0 0.8 -0.00519092 -2.4771 24.5272
28 1 0.05 0.75 -0.00519092 -2.4771 24.5272
29 1 0.05 0.85 -0.00519092 -2.4771 24.5272
110 1 0.0666667 0.8 0.0604829 -2.83189 0.00388722
111 1 0.1 0.8 -0.00519092 -2.4771 24.5272
112 1 0.116667 0.75 0.0604829 -2.83189 0.00388722
113 1 0.116667 0.85 0.0604829 -2.83189 0.00388722
116 1 0.15 0.75 -0.00519092 -2.4771 24.5272
119 1 0.15 0.85 -0.00519092 -2.4771 24.5272
242 1 0.166667 0.8 0.0604829 -2.83189 0.00388722
248 1 0.216667 0.75 0.0604829 -2.83189 0.00388722
255 1 0.216667 0.85 0.0604829 -2.83189 0.00388722
257 1 0.2 0.8 -0.00519092 -2.4771 24.5272
258 1 0.25 0.75 -0.00519092 -2.4771 24.5272
259 1 0.25 0.85 -0.00519092 -2.4771 24.5272
390 1 0.266667 0.8 0.0604829 -2.83189 0.00388722
391 1 0.3 0.8 -0.00519092 -2.4771 24.5272
392 1 0.316667 0.75 0.0604829 -2.83189 0.00388722
393 1 0.316667 0.85 0.0604829 -2.83189 0.00388722
396 1 0.35 0.75 -0.00519092 -2.4771 24.5272
399 1 0.35 0.85 -0.00519092 -2.4771 24.5272
522 1 0.366667 0.8 0.0604829 -2.83189 0.00388722
528 1 0.416667 0.75 0.0604829 -2.83189 0.00388722
535 1 0.416667 0.85 0.0604829 -2.83189 0.00388722
537 1 0.4 0.8 -0.00519092 -2.4771 24.5272
538 1 0.45 0.75 -0.00519092 -2.4771 24.5272
539 1 0.45 0.85 -0.00519092 -2.4771 24.5272
670 1 0.466667 0.8 0.0604829 -2.83189 0.00388722
671 1 0.5 0.8 -0.00519092 -2.4771 24.5272
672 1 0.516667 0.75 0.0604829 -2.83189 0.00388722
673 1 0.516667 0.85 0.0604829 -2.83189 0.00388722
676 1 0.55 0.75 -0.00519092 -2.4771 24.5272
679 1 0.55 0.85 -0.00519092 -2.4771 24.5272
802 1 0.566667 0.8 0.0604829 -2.83189 0.00388722
808 1 0.616667 0.75 0.0604829 -2.83189 0.00388722
815 1 0.616667 0.85 0.0604829 -2.83189 0.00388722
817 1 0.6 0.8 -0.00519092 -2.4771 24.5272
818 1 0.65 0.75 -0.00519092 -2.4771 24.5272
819 1 0.65 0.85 -0.00519092 -2.4771 24.5272
950 1 0.666667 0.8 0.0604829 -2.83189 0.00388722
951 1 0.7 0.8 -0.00519092 -2.4771 24.5272
952 1 0.716667 0.75 0.0604829 -2.83189 0.00388722
953 1 0.716667 0.85 0.0604829 -2.83189 0.00388722
956 1 0.75 0.75 -0.00519092 -2.4771 24.5272
959 1 0.75 0.85 -0.00519092 -2.4771 24.5272
1082 1 0.766667 0.8 0.0604829 -2.83189 0.00388722
1088 1 0.816667 0.75 0.0604829 -2.83189 0.00388722
1095 1 0.816667 0.85 0.0604829 -2.83189 0.00388722
1097 1 0.8 0.8 -0.00519092 -2.4771 24.5272
1098 1 0.85 0.75 -0.00519092 -2.4771 24.5272
1099 1 0.85 0.85 -0.00519092 -2.4771 24.5272
1230 1 0.866667 0.8 0.0604829 -2.83189 0.00388722
1231 1 0.9 0.8 -0.00519092 -2.4771 24.5272
1232 1 0.916667 0.75 0.0604829 -2.83189 0.00388722
1233 1 0.916667 0.85 0.0604829 -2.83189 0.00388722
1236 1 0.95 0.75 -0.00519092 -2.4771 24.5272
1239 1 0.95 0.85 -0.00519092 -2.4771 24.5272
1345 1 0.966667 0.8 0.0604829 -2.83189 0.00388722
24 1 0 0.9 -0.00519092 -2.4771 24.5272
26 1 0.0166667 0.95 0.0604829 -2.83189 0.00388722
30 1 0.05 0.95 -0.00519092 -2.4771 24.5272
107 1 0.0666667 0.9 0.0604829 -2.83189 0.00388722
117 1 0.116667 0.95 0.0604829 -2.83189 0.00388722
118 1 0.1 0.9 -0.00519092 -2.4771 24.5272
120 1 0.15 0.95 -0.00519092 -2.4771 24.5272
253 1 0.166667 0.9 0.0604829 -2.83189 0.00388722
254 1 0.2 0.9 -0.00519092 -2.4771 24.5272
256 1 0.216667 0.95 0.0604829 -2.83189 0.00388722
260 1 0.25 0.95 -0.00519092 -2.4771 24.5272
387 1 0.266667 0.9 0.0604829 -2.83189 0.00388722
397 1 0.316667 0.95 0.0604829 -2.83189 0.00388722
398 1 0.3 0.9 -0.00519092 -2.4771 24.5272
400 1 0.35 0.95 -0.00519092 -2.4771 24.5272
533 1 0.366667 0.9 0.0604829 -2.83189 0.00388722
534 1 0.4 0.9 -0.00519092 -2.4771 24.5272
536 1 0.416667 0.95 0.0604829 -2.83189 0.00388722
540 1 0.45 0.95 -0.00519092 -2.4771 24.5272
667 1 0.466667 0.9 0.0604829 -2.83189 0.00388722
678 1 0.5 0.9 -0.00519092 -2.4771 24.5272
677 1 0.516667 0.95 0.0604829 -2.83189 0.00388722
680 1 0.55 0.95 -0.00519092 -2.4771 24.5272
813 1 0.566667 0.9 0.0604829 -2.83189 0.00388722
814 1 0.6 0.9 -0.00519092 -2.4771 24.5272
816 1 0.616667 0.95 0.0604829 -2.83189 0.00388722
820 1 0.65 0.95 -0.00519092 -2.4771 24.5272
947 1 0.666667 0.9 0.0604829 -2.83189 0.00388722
957 1 0.716667 0.95 0.0604829 -2.83189 0.00388722
958 1 0.7 0.9 -0.00519092 -2.4771 24.5272
960 1 0.75 0.95 -0.00519092 -2.4771 24.5272
1093 1 0.766667 0.9 0.0604829 -2.83189 0.00388722
1094 1 0.8 0.9 -0.00519092 -2.4771 24.5272
1096 1 0.816667 0.95 0.0604829 -2.83189 0.00388722
1100 1 0.85 0.95 -0.00519092 -2.4771 24.5272
1227 1 0.866667 0.9 0.0604829 -2.83189 0.00388722
1237 1 0.916667 0.95 0.0604829 -2.83189 0.00388722
1238 1 0.9 0.9 -0.00519092 -2.4771 24.5272
1240 1 0.95 0.95 -0.00519092 -2.4771 24.5272
1350 1 0.966667 0.9 0.0604829 -2.83189 0.00388722
31 1 0 0.1 0.193998 -2.85016 1.77382e-06
34 1 0 0 0.193998 -2.85016 1.77382e-06
35 1 0.0333333 0 0.127175 -2.85107 6.37107e-05
36 1 0.05 0.05 0.193998 -2.85016 1.77382e-06
44 1 0.0333333 0.1 0.127175 -2.85107 6.37107e-05
46 1 0.0833333 0.05 0.127175 -2.85107 6.37107e-05
135 1 0.1 0 0.193998 -2.85016 1.77382e-06
150 1 0.1 0.1 0.193998 -2.85016 1.77382e-06
151 1 0.133333 0.1 0.127175 -2.85107 6.37107e-05
152 1 0.15 0.05 0.193998 -2.85016 1.77382e-06
154 1 0.133333 0 0.127175 -2.85107 6.37107e-05
156 1 0.183333 0.05 0.127175 -2.85107 6.37107e-05
280 1 0.2 0.1 0.193998 -2.85016 1.77382e-06
283 1 0.2 0 0.193998 -2.85016 1.77382e-06
284 1 0.233333 0 0.127175 -2.85107 6.37107e-05
285 1 0.25 0.05 0.193998 -2.85016 1.77382e-06
303 1 0.233333 0.1 0.127175 -2.85107 6.37107e-05
305 1 0.283333 0.05 0.127175 -2.85107 6.37107e-05
415 1 0.3 0 0.193998 -2.85016 1.77382e-06
430 1 0.3 0.1 0.193998 -2.85016 1.77382e-06
431 1 0.333333 0.1 0.127175 -2.85107 6.37107e-05
434 1 0.333333 0 0.127175 -2.85107 6.37107e-05
432 1 0.35 0.05 0.193998 -2.85016 1.77382e-06
436 1 0.383333 0.05 0.127175 -2.85107 6.37107e-05
560 1 0.4 0.1 0.193998 -2.85016 1.77382e-06
563 1 0.4 0 0.193998 -2.85016 1.77382e-06
564 1 0.433333 0 0.127175 -2.85107 6.37107e-05
565 1 0.45 0.05 0.193998 -2.85016 1.77382e-06
583 1 0.433333 0.1 0.127175 -2.85107 6.37107e-05
585 1 0.483333 0.05 0.127175 -2.85107 6.37107e-05
695 1 0.5 0 0.193998 -2.85016 1.77382e-06
710 1 0.5 0.1 0.193998 -2.85016 1.77382e-06
711 1 0.533333 0.1 0.127175 -2.85107 6.37107e-05
712 1 0.55 0.05 0.193998 -2.85016 1.77382e-06
714 1 0.533333 0 0.127175 -2.85107 6.37107e-05
716 1 0.583333 0.05 0.127175 -2.85107 6.37107e-05
840 1 0.6 0.1 0.193998 -2.85016 1.77382e-06
843 1 0.6 0 0.193998 -2.85016 1.77382e-06
844 1 0.633333 0 0.127175 -2.85107 6.37107e-05
845 1 0.65 0.05 0.193998 -2.85016 1.77382e-06
863 1 0.633333 0.1 0.127175 -2.85107 6.37107e-05
865 1 0.683333 0.05 0.127175 -2.85107 6.37107e-05
975 1 0.7 0 0.193998 -2.85016 1.77382e-06
990 1 0.7 0.1 0.193998 -2.85016 1.77382e-06
991 1 0.733333 0.1 0.127175 -2.85107 6.37107e-05
992 1 0.75 0.05 0.193998 -2.85016 1.77382e-06
994 1 0.733333 0 0.127175 -2.85107 6.37107e-05
996 1 0.783333 0.05 0.127175 -2.85107 6.37107e-05
1120 1 0.8 0.1 0.193998 -2.85016 1.77382e-06
1123 1 0.8 0 0.193998 -2.85016 1.77382e-06
1124 1 0.833333 0 0.127175 -2.85107 6.37107e-05
1143 1 0.833333 0.1 0.127175 -2.85107 6.37107e-05
1125 1 0.85 0.05 0.193998 -2.85016 1.77382e-06
1145 1 0.883333 0.05 0.127175 -2.85107 6.37107e-05
1255 1 0.9 0 0.193998 -2.85016 1.77382e-06
1270 1 0.9 0.1 0.193998 -2.85016 1.77382e-06
1271 1 0.933333 0.1 0.127175 -2.85107 6.37107e-05
1272 1 0.95 0.05 0.193998 -2.85016 1.77382e-06
1274 1 0.933333 0 0.127175 -2.85107 6.37107e-05
1276 1 0.983333 0.05 0.127175 -2.85107 6.37107e-05
40 1 0 0.2 0.193998 -2.85016 1.77382e-06
41 1 0.0333333 0.2 0.127175 -2.85107 6.37107e-05
42 1 0.05 0.15 0.193998 -2.85016 1.77382e-06
43 1 0.05 0.25 0.193998 -2.85016 1.77382e-06
47 1 0.0833333 0.15 0.127175 -2.85107 6.37107e-05
60 1 0.0833333 0.25 0.127175 -2.85107 6.37107e-05
147 1 0.1 0.2 0.193998 -2.85016 1.77382e-06
153 1 0.15 0.15 0.193998 -2.85016 1.77382e-06
172 1 0.15 0.25 0.193998 -2.85016 1.77382e-06
174 1 0.133333 0.2 0.127175 -2.85107 6.37107e-05
176 1 0.183333 0.15 0.127175 -2.85107 6.37107e-05
177 1 0.183333 0.25 0.127175 -2.85107 6.37107e-05
299 1 0.2 0.2 0.193998 -2.85016 1.77382e-06
300 1 0.233333 0.2 0.127175 -2.85107 6.37107e-05
301 1 0.25 0.15 0.193998 -2.85016 1.77382e-06
302 1 0.25 0.25 0.193998 -2.85016 1.77382e-06
306 1 0.283333 0.15 0.127175 -2.85107 6.37107e-05
329 1 0.283333 0.25 0.127175 -2.85107 6.37107e-05
427 1 0.3 0.2 0.193998 -2.85016 1.77382e-06
454 1 0.333333 0.2 0.127175 -2.85107 6.37107e-05
433 1 0.35 0.15 0.193998 -2.85016 1.77382e-06
452 1 0.35 0.25 0.193998 -2.85016 1.77382e-06
456 1 0.383333 0.15 0.127175 -2.85107 6.37107e-05
457 1 0.383333 0.25 0.127175 -2.85107 6.37107e-05
579 1 0.4 0.2 0.193998 -2.85016 1.77382e-06
580 1 0.433333 0.2 0.127175 -2.85107 6.37107e-05
581 1 0.45 0.15 0.193998 -2.85016 1.77382e-06
582 1 0.45 0.25 0.193998 -2.85016 1.77382e-06
586 1 0.483333 0.15 0.127175 -2.85107 6.37107e-05
609 1 0.483333 0.25 0.127175 -2.85107 6.37107e-05
707 1 0.5 0.2 0.193998 -2.85016 1.77382e-06
713 1 0.55 0.15 0.193998 -2.85016 1.77382e-06
732 1 0.55 0.25 0.193998 -2.85016 1.77382e-06
734 1 0.533333 0.2 0.127175 -2.85107 6.37107e-05
736 1 0.583333 0.15 0.127175 -2.85107 6.37107e-05
737 1 0.583333 0.25 0.127175 -2.85107 6.37107e-05
859 1 0.6 0.2 0.193998 -2.85016 1.77382e-06
860 1 0.633333 0.2 0.127175 -2.85107 6.37107e-05
861 1 0.65 0.15 0.193998 -2.85016 1.77382e-06
862 1 0.65 0.25 0.193998 -2.85016 1.77382e-06
866 1 0.683333 0.15 0.127175 -2.85107 6.37107e-05
889 1 0.683333 0.25 0.127175 -2.85107 6.37107e-05
987 1 0.7 0.2 0.193998 -2.85016 1.77382e-06
993 1 0.75 0.15 0.193998 -2.85016 1.77382e-06
1012 1 0.75 0.25 0.193998 -2.85016 1.77382e-06
1014 1 0.733333 0.2 0.127175 -2.85107 6.37107e-05
1016 1 0.783333 0.15 0.127175 -2.85107 6.37107e-05
1017 1 0.783333 0.25 0.127175 -2.85107 6.37107e-05
1139 1 0.8 0.2 0.193998 -2.85016 1.77382e-06
1140 1 0.833333 0.2 0.127175 -2.85107 6.37107e-05
1141 1 0.85 0.15 0.193998 -2.85016 1.77382e-06
1142 1 0.85 0.25 0.193998 -2.85016 1.77382e-06
1146 1 0.883333 0.15 0.127175 -2.85107 6.37107e-05
1169 1 0.883333 0.25 0.127175 -2.85107 6.37107e-05
1267 1 0.9 0.2 0.193998 -2.85016 1.77382e-06
1273 1 0.95 0.15 0.193998 -2.85016 1.77382e-06
1292 1 0.95 0.25 0.193998 -2.85016 1.77382e-06
1294 1 0.933333 0.2 0.127175 -2.85107 6.37107e-05
1296 1 0.983333 0.15 0.127175 -2.85107 6.37107e-05
1297 1 0.983333 0.25 0.127175 -2.85107 6.37107e-05
37 1 0 0.3 0.193998 -2.85016 1.77382e-06
54 1 8.86546e-18 0.4 0.193998 -2.85016 1.77382e-06
55 1 0.0333333 0.4 0.127175 -2.85107 6.37107e-05
56 1 0.05 0.35 0.193998 -2.85016 1.77382e-06
58 1 0.0333333 0.3 0.127175 -2.85107 6.37107e-05
61 1 0.0833333 0.35 0.127175 -2.85107 6.37107e-05
167 1 0.1 0.4 0.193998 -2.85016 1.77382e-06
170 1 0.1 0.3 0.193998 -2.85016 1.77382e-06
171 1 0.133333 0.3 0.127175 -2.85107 6.37107e-05
173 1 0.15 0.35 0.193998 -2.85016 1.77382e-06
201 1 0.133333 0.4 0.127175 -2.85107 6.37107e-05
203 1 0.183333 0.35 0.127175 -2.85107 6.37107e-05
296 1 0.2 0.3 0.193998 -2.85016 1.77382e-06
323 1 0.2 0.4 0.193998 -2.85016 1.77382e-06
324 1 0.233333 0.4 0.127175 -2.85107 6.37107e-05
325 1 0.25 0.35 0.193998 -2.85016 1.77382e-06
327 1 0.233333 0.3 0.127175 -2.85107 6.37107e-05
330 1 0.283333 0.35 0.127175 -2.85107 6.37107e-05
447 1 0.3 0.4 0.193998 -2.85016 1.77382e-06
450 1 0.3 0.3 0.193998 -2.85016 1.77382e-06
451 1 0.333333 0.3 0.127175 -2.85107 6.37107e-05
481 1 0.333333 0.4 0.127175 -2.85107 6.37107e-05
453 1 0.35 0.35 0.193998 -2.85016 1.77382e-06
483 1 0.383333 0.35 0.127175 -2.85107 6.37107e-05
576 1 0.4 0.3 0.193998 -2.85016 1.77382e-06
603 1 0.4 0.4 0.193998 -2.85016 1.77382e-06
604 1 0.433333 0.4 0.127175 -2.85107 6.37107e-05
605 1 0.45 0.35 0.193998 -2.85016 1.77382e-06
607 1 0.433333 0.3 0.127175 -2.85107 6.37107e-05
610 1 0.483333 0.35 0.127175 -2.85107 6.37107e-05
727 1 0.5 0.4 0.193998 -2.85016 1.77382e-06
730 1 0.5 0.3 0.193998 -2.85016 1.77382e-06
731 1 0.533333 0.3 0.127175 -2.85107 6.37107e-05
733 1 0.55 0.35 0.193998 -2.85016 1.77382e-06
761 1 0.533333 0.4 0.127175 -2.85107 6.37107e-05
763 1 0.583333 0.35 0.127175 -2.85107 6.37107e-05
856 1 0.6 0.3 0.193998 -2.85016 1.77382e-06
883 1 0.6 0.4 0.193998 -2.85016 1.77382e-06
884 1 0.633333 0.4 0.127175 -2.85107 6.37107e-05
885 1 0.65 0.35 0.193998 -2.85016 1.77382e-06
887 1 0.633333 0.3 0.127175 -2.85107 6.37107e-05
890 1 0.683333 0.35 0.127175 -2.85107 6.37107e-05
1007 1 0.7 0.4 0.193998 -2.85016 1.77382e-06
1010 1 0.7 0.3 0.193998 -2.85016 1.77382e-06
1011 1 0.733333 0.3 0.127175 -2.85107 6.37107e-05
1013 1 0.75 0.35 0.193998 -2.85016 1.77382e-06
1041 1 0.733333 0.4 0.127175 -2.85107 6.37107e-05
1043 1 0.783333 0.35 0.127175 -2.85107 6.37107e-05
1136 1 0.8 0.3 0.193998 -2.85016 1.77382e-06
1163 1 0.8 0.4 0.193998 -2.85016 1.77382e-06
1164 1 0.833333 0.4 0.127175 -2.85107 6.37107e-05
1167 1 0.833333 0.3 0.127175 -2.85107 6.37107e-05
1165 1 0.85 0.35 0.193998 -2.85016 1.77382e-06
1170 1 0.883333 0.35 0.127175 -2.85107 6.37107e-05
1287 1 0.9 0.4 0.193998 -2.85016 1.77382e-06
1290 1 0.9 0.3 0.193998 -2.85016 1.77382e-06
1291 1 0.933333 0.3 0.127175 -2.85107 6.37107e-05
1293 1 0.95 0.35 0.193998 -2.85016 1.77382e-06
1316 1 0.933333 0.4 0.127175 -2.85107 6.37107e-05
1318 1 0.983333 0.35 0.127175 -2.85107 6.37107e-05
51 1 0 0.5 0.193998 -2.85016 1.77382e-06
57 1 0.05 0.45 0.193998 -2.85016 1.77382e-06
74 1 0.05 0.55 0.193998 -2.85016 1.77382e-06
76 1 0.0333333 0.5 0.127175 -2.85107 6.37107e-05
78 1 0.0833333 0.45 0.127175 -2.85107 6.37107e-05
79 1 0.0833333 0.55 0.127175 -2.85107 6.37107e-05
197 1 0.1 0.5 0.193998 -2.85016 1.77382e-06
198 1 0.133333 0.5 0.127175 -2.85107 6.37107e-05
199 1 0.15 0.45 0.193998 -2.85016 1.77382e-06
200 1 0.15 0.55 0.193998 -2.85016 1.77382e-06
204 1 0.183333 0.45 0.127175 -2.85107 6.37107e-05
227 1 0.183333 0.55 0.127175 -2.85107 6.37107e-05
320 1 0.2 0.5 0.193998 -2.85016 1.77382e-06
326 1 0.25 0.45 0.193998 -2.85016 1.77382e-06
352 1 0.25 0.55 0.193998 -2.85016 1.77382e-06
354 1 0.233333 0.5 0.127175 -2.85107 6.37107e-05
356 1 0.283333 0.45 0.127175 -2.85107 6.37107e-05
357 1 0.283333 0.55 0.127175 -2.85107 6.37107e-05
477 1 0.3 0.5 0.193998 -2.85016 1.77382e-06
478 1 0.333333 0.5 0.127175 -2.85107 6.37107e-05
479 1 0.35 0.45 0.193998 -2.85016 1.77382e-06
480 1 0.35 0.55 0.193998 -2.85016 1.77382e-06
484 1 0.383333 0.45 0.127175 -2.85107 6.37107e-05
507 1 0.383333 0.55 0.127175 -2.85107 6.37107e-05
600 1 0.4 0.5 0.193998 -2.85016 1.77382e-06
606 1 0.45 0.45 0.193998 -2.85016 1.77382e-06
632 1 0.45 0.55 0.193998 -2.85016 1.77382e-06
634 1 0.433333 0.5 0.127175 -2.85107 6.37107e-05
636 1 0.483333 0.45 0.127175 -2.85107 6.37107e-05
637 1 0.483333 0.55 0.127175 -2.85107 6.37107e-05
757 1 0.5 0.5 0.193998 -2.85016 1.77382e-06
758 1 0.533333 0.5 0.127175 -2.85107 6.37107e-05
759 1 0.55 0.45 0.193998 -2.85016 1.77382e-06
760 1 0.55 0.55 0.193998 -2.85016 1.77382e-06
764 1 0.583333 0.45 0.127175 -2.85107 6.37107e-05
787 1 0.583333 0.55 0.127175 -2.85107 6.37107e-05
880 1 0.6 0.5 0.193998 -2.85016 1.77382e-06
886 1 0.65 0.45 0.193998 -2.85016 1.77382e-06
912 1 0.65 0.55 0.193998 -2.85016 1.77382e-06
914 1 0.633333 0.5 0.127175 -2.85107 6.37107e-05
916 1 0.683333 0.45 0.127175 -2.85107 6.37107e-05
917 1 0.683333 0.55 0.127175 -2.85107 6.37107e-05
1037 1 0.7 0.5 0.193998 -2.85016 1.77382e-06
1038 1 0.733333 0.5 0.127175 -2.85107 6.37107e-05
1039 1 0.75 0.45 0.193998 -2.85016 1.77382e-06
1040 1 0.75 0.55 0.193998 -2.85016 1.77382e-06
1044 1 0.783333 0.45 0.127175 -2.85107 6.37107e-05
1067 1 0.783333 0.55 0.127175 -2.85107 6.37107e-05
1160 1 0.8 0.5 0.193998 -2.85016 1.77382e-06
1194 1 0.833333 0.5 0.127175 -2.85107 6.37107e-05
1166 1 0.85 0.45 0.193998 -2.85016 1.77382e-06
1192 1 0.85 0.55 0.193998 -2.85016 1.77382e-06
1196 1 0.883333 0.45 0.127175 -2.85107 6.37107e-05
1197 1 0.883333 0.55 0.127175 -2.85107 6.37107e-05
1312 1 0.9 0.5 0.193998 -2.85016 1.77382e-06
1313 1 0.933333 0.5 0.127175 -2.85107 6.37107e-05
1314 1 0.95 0.45 0.193998 -2.85016 1.77382e-06
1315 1 0.95 0.55 0.193998 -2.85016 1.77382e-06