ITEM: TIMESTEP
48
ITEM: NUMBER OF ATOMS
3200
ITEM: BOX BOUNDS pp pp ss
0.0000000000000000e+00 5.0092067021360698e+01
0.0000000000000000e+00 2.8920668379047399e+01
3.8451742731260487e-02 3.5381988531723906e+01
ITEM: ATOMS id type xs ys zs c_peratom c_csym
1 1 0 0.1 -0.00518586 -2.47715 24.5043
2 1 0.0166667 0.05 0.0604415 -2.83187 0.00490329
4 1 0 0 -0.00518586 -2.47715 24.5043
5 1 0.05 0.05 -0.00518586 -2.47715 24.5043
45 1 0.0666667 0.1 0.0604415 -2.83187 0.00490329
48 1 0.0666667 0 0.0604415 -2.83187 0.00490329
49 1 0.1 0 -0.00518586 -2.47715 24.5043
50 1 0.116667 0.05 0.0604415 -2.83187 0.00490329
66 1 0.1 0.1 -0.00518586 -2.47715 24.5043
67 1 0.15 0.05 -0.00518586 -2.47715 24.5043
155 1 0.166667 0 0.0604415 -2.83187 0.00490329
178 1 0.166667 0.1 0.0604415 -2.83187 0.00490329
179 1 0.2 0.1 -0.00518586 -2.47715 24.5043
180 1 0.216667 0.05 0.0604415 -2.83187 0.00490329
182 1 0.2 0 -0.00518586 -2.47715 24.5043
183 1 0.25 0.05 -0.00518586 -2.47715 24.5043
304 1 0.266667 0.1 0.0604415 -2.83187 0.00490329
307 1 0.266667 0 0.0604415 -2.83187 0.00490329
308 1 0.3 0 -0.00518586 -2.47715 24.5043
309 1 0.316667 0.05 0.0604415 -2.83187 0.00490329
335 1 0.3 0.1 -0.00518586 -2.47715 24.5043
336 1 0.35 0.05 -0.00518586 -2.47715 24.5043
435 1 0.366667 0 0.0604415 -2.83187 0.00490329
458 1 0.366667 0.1 0.0604415 -2.83187 0.00490329
459 1 0.4 0.1 -0.00518586 -2.47715 24.5043
460 1 0.416667 0.05 0.0604415 -2.83187 0.00490329
462 1 0.4 0 -0.00518586 -2.47715 24.5043
463 1 0.45 0.05 -0.00518586 -2.47715 24.5043
584 1 0.466667 0.1 0.0604415 -2.83187 0.00490329
587 1 0.466667 0 0.0604415 -2.83187 0.00490329
588 1 0.5 0 -0.00518586 -2.47715 24.5043
615 1 0.5 0.1 -0.00518586 -2.47715 24.5043
589 1 0.516667 0.05 0.0604415 -2.83187 0.00490329
616 1 0.55 0.05 -0.00518586 -2.47715 24.5043
715 1 0.566667 0 0.0604415 -2.83187 0.00490329
738 1 0.566667 0.1 0.0604415 -2.83187 0.00490329
739 1 0.6 0.1 -0.00518586 -2.47715 24.5043
740 1 0.616667 0.05 0.0604415 -2.83187 0.00490329
742 1 0.6 0 -0.00518586 -2.47715 24.5043
743 1 0.65 0.05 -0.00518586 -2.47715 24.5043
864 1 0.666667 0.1 0.0604415 -2.83187 0.00490329
867 1 0.666667 0 0.0604415 -2.83187 0.00490329
868 1 0.7 0 -0.00518586 -2.47715 24.5043
869 1 0.716667 0.05 0.0604415 -2.83187 0.00490329
895 1 0.7 0.1 -0.00518586 -2.47715 24.5043
896 1 0.75 0.05 -0.00518586 -2.47715 24.5043
995 1 0.766667 0 0.0604415 -2.83187 0.00490329
1018 1 0.766667 0.1 0.0604415 -2.83187 0.00490329
1019 1 0.8 0.1 -0.00518586 -2.47715 24.5043
1020 1 0.816667 0.05 0.0604415 -2.83187 0.00490329
1022 1 0.8 0 -0.00518586 -2.47715 24.5043
1023 1 0.85 0.05 -0.00518586 -2.47715 24.5043
1144 1 0.866667 0.1 0.0604415 -2.83187 0.00490329
1147 1 0.866667 0 0.0604415 -2.83187 0.00490329
1148 1 0.9 0 -0.00518586 -2.47715 24.5043
1149 1 0.916667 0.05 0.0604415 -2.83187 0.00490329
1175 1 0.9 0.1 -0.00518586 -2.47715 24.5043
1176 1 0.95 0.05 -0.00518586 -2.47715 24.5043
1275 1 0.966667 0 0.0604415 -2.83187 0.00490329
1298 1 0.966667 0.1 0.0604415 -2.83187 0.00490329
3 1 0.0166667 0.15 0.0604415 -2.83187 0.00490329
7 1 0.0166667 0.25 0.0604415 -2.83187 0.00490329
9 1 0 0.2 -0.00518586 -2.47715 24.5043
10 1 0.05 0.15 -0.00518586 -2.47715 24.5043
11 1 0.05 0.25 -0.00518586 -2.47715 24.5043
62 1 0.0666667 0.2 0.0604415 -2.83187 0.00490329
63 1 0.1 0.2 -0.00518586 -2.47715 24.5043
64 1 0.116667 0.15 0.0604415 -2.83187 0.00490329
65 1 0.116667 0.25 0.0604415 -2.83187 0.00490329
68 1 0.15 0.15 -0.00518586 -2.47715 24.5043
85 1 0.15 0.25 -0.00518586 -2.47715 24.5043
175 1 0.166667 0.2 0.0604415 -2.83187 0.00490329
181 1 0.216667 0.15 0.0604415 -2.83187 0.00490329
207 1 0.216667 0.25 0.0604415 -2.83187 0.00490329
209 1 0.2 0.2 -0.00518586 -2.47715 24.5043
210 1 0.25 0.15 -0.00518586 -2.47715 24.5043
211 1 0.25 0.25 -0.00518586 -2.47715 24.5043
331 1 0.266667 0.2 0.0604415 -2.83187 0.00490329
332 1 0.3 0.2 -0.00518586 -2.47715 24.5043
333 1 0.316667 0.15 0.0604415 -2.83187 0.00490329
334 1 0.316667 0.25 0.0604415 -2.83187 0.00490329
337 1 0.35 0.15 -0.00518586 -2.47715 24.5043
363 1 0.35 0.25 -0.00518586 -2.47715 24.5043
455 1 0.366667 0.2 0.0604415 -2.83187 0.00490329
461 1 0.416667 0.15 0.0604415 -2.83187 0.00490329
487 1 0.416667 0.25 0.0604415 -2.83187 0.00490329
489 1 0.4 0.2 -0.00518586 -2.47715 24.5043
490 1 0.45 0.15 -0.00518586 -2.47715 24.5043
491 1 0.45 0.25 -0.00518586 -2.47715 24.5043
611 1 0.466667 0.2 0.0604415 -2.83187 0.00490329
612 1 0.5 0.2 -0.00518586 -2.47715 24.5043
613 1 0.516667 0.15 0.0604415 -2.83187 0.00490329
614 1 0.516667 0.25 0.0604415 -2.83187 0.00490329
617 1 0.55 0.15 -0.00518586 -2.47715 24.5043
643 1 0.55 0.25 -0.00518586 -2.47715 24.5043
735 1 0.566667 0.2 0.0604415 -2.83187 0.00490329
741 1 0.616667 0.15 0.0604415 -2.83187 0.00490329
767 1 0.616667 0.25 0.0604415 -2.83187 0.00490329
769 1 0.6 0.2 -0.00518586 -2.47715 24.5043
770 1 0.65 0.15 -0.00518586 -2.47715 24.5043
771 1 0.65 0.25 -0.00518586 -2.47715 24.5043
891 1 0.666667 0.2 0.0604415 -2.83187 0.00490329
892 1 0.7 0.2 -0.00518586 -2.47715 24.5043
893 1 0.716667 0.15 0.0604415 -2.83187 0.00490329
894 1 0.716667 0.25 0.0604415 -2.83187 0.00490329
897 1 0.75 0.15 -0.00518586 -2.47715 24.5043
923 1 0.75 0.25 -0.00518586 -2.47715 24.5043
1015 1 0.766667 0.2 0.0604415 -2.83187 0.00490329
1021 1 0.816667 0.15 0.0604415 -2.83187 0.00490329
1047 1 0.816667 0.25 0.0604415 -2.83187 0.00490329
1049 1 0.8 0.2 -0.00518586 -2.47715 24.5043
1050 1 0.85 0.15 -0.00518586 -2.47715 24.5043
1051 1 0.85 0.25 -0.00518586 -2.47715 24.5043
1171 1 0.866667 0.2 0.0604415 -2.83187 0.00490329
1172 1 0.9 0.2 -0.00518586 -2.47715 24.5043
1173 1 0.916667 0.15 0.0604415 -2.83187 0.00490329
1174 1 0.916667 0.25 0.0604415 -2.83187 0.00490329
1177 1 0.95 0.15 -0.00518586 -2.47715 24.5043
1203 1 0.95 0.25 -0.00518586 -2.47715 24.5043
1295 1 0.966667 0.2 0.0604415 -2.83187 0.00490329
6 1 0 0.3 -0.00518586 -2.47715 24.5043
8 1 0.0166667 0.35 0.0604415 -2.83187 0.00490329
15 1 0 0.4 -0.00518586 -2.47715 24.5043
16 1 0.05 0.35 -0.00518586 -2.47715 24.5043
59 1 0.0666667 0.3 0.0604415 -2.83187 0.00490329
80 1 0.0666667 0.4 0.0604415 -2.83187 0.00490329
81 1 0.1 0.4 -0.00518586 -2.47715 24.5043
82 1 0.116667 0.35 0.0604415 -2.83187 0.00490329
84 1 0.1 0.3 -0.00518586 -2.47715 24.5043
86 1 0.15 0.35 -0.00518586 -2.47715 24.5043
202 1 0.166667 0.4 0.0604415 -2.83187 0.00490329
205 1 0.166667 0.3 0.0604415 -2.83187 0.00490329
206 1 0.2 0.3 -0.00518586 -2.47715 24.5043
208 1 0.216667 0.35 0.0604415 -2.83187 0.00490329
233 1 0.2 0.4 -0.00518586 -2.47715 24.5043
234 1 0.25 0.35 -0.00518586 -2.47715 24.5043
328 1 0.266667 0.3 0.0604415 -2.83187 0.00490329
358 1 0.266667 0.4 0.0604415 -2.83187 0.00490329
359 1 0.3 0.4 -0.00518586 -2.47715 24.5043
360 1 0.316667 0.35 0.0604415 -2.83187 0.00490329
362 1 0.3 0.3 -0.00518586 -2.47715 24.5043
364 1 0.35 0.35 -0.00518586 -2.47715 24.5043
482 1 0.366667 0.4 0.0604415 -2.83187 0.00490329
485 1 0.366667 0.3 0.0604415 -2.83187 0.00490329
486 1 0.4 0.3 -0.00518586 -2.47715 24.5043
488 1 0.416667 0.35 0.0604415 -2.83187 0.00490329
513 1 0.4 0.4 -0.00518586 -2.47715 24.5043
514 1 0.45 0.35 -0.00518586 -2.47715 24.5043
608 1 0.466667 0.3 0.0604415 -2.83187 0.00490329
638 1 0.466667 0.4 0.0604415 -2.83187 0.00490329
639 1 0.5 0.4 -0.00518586 -2.47715 24.5043
642 1 0.5 0.3 -0.00518586 -2.47715 24.5043
640 1 0.516667 0.35 0.0604415 -2.83187 0.00490329
644 1 0.55 0.35 -0.00518586 -2.47715 24.5043
762 1 0.566667 0.4 0.0604415 -2.83187 0.00490329
765 1 0.566667 0.3 0.0604415 -2.83187 0.00490329
766 1 0.6 0.3 -0.00518586 -2.47715 24.5043
768 1 0.616667 0.35 0.0604415 -2.83187 0.00490329
793 1 0.6 0.4 -0.00518586 -2.47715 24.5043
794 1 0.65 0.35 -0.00518586 -2.47715 24.5043
888 1 0.666667 0.3 0.0604415 -2.83187 0.00490329
918 1 0.666667 0.4 0.0604415 -2.83187 0.00490329
919 1 0.7 0.4 -0.00518586 -2.47715 24.5043
920 1 0.716667 0.35 0.0604415 -2.83187 0.00490329
922 1 0.7 0.3 -0.00518586 -2.47715 24.5043
924 1 0.75 0.35 -0.00518586 -2.47715 24.5043
1042 1 0.766667 0.4 0.0604415 -2.83187 0.00490329
1045 1 0.766667 0.3 0.0604415 -2.83187 0.00490329
1046 1 0.8 0.3 -0.00518586 -2.47715 24.5043
1048 1 0.816667 0.35 0.0604415 -2.83187 0.00490329
1073 1 0.8 0.4 -0.00518586 -2.47715 24.5043
1074 1 0.85 0.35 -0.00518586 -2.47715 24.5043
1168 1 0.866667 0.3 0.0604415 -2.83187 0.00490329
1198 1 0.866667 0.4 0.0604415 -2.83187 0.00490329
1199 1 0.9 0.4 -0.00518586 -2.47715 24.5043
1200 1 0.916667 0.35 0.0604415 -2.83187 0.00490329
1202 1 0.9 0.3 -0.00518586 -2.47715 24.5043
1204 1 0.95 0.35 -0.00518586 -2.47715 24.5043
1317 1 0.966667 0.4 0.0604415 -2.83187 0.00490329
1320 1 0.966667 0.3 0.0604415 -2.83187 0.00490329
12 1 0 0.5 -0.00518586 -2.47715 24.5043
13 1 0.0166667 0.45 0.0604415 -2.83187 0.00490329
14 1 0.0166667 0.55 0.0604415 -2.83187 0.00490329
17 1 0.05 0.45 -0.00518586 -2.47715 24.5043
22 1 0.05 0.55 -0.00518586 -2.47715 24.5043
77 1 0.0666667 0.5 0.0604415 -2.83187 0.00490329
83 1 0.116667 0.45 0.0604415 -2.83187 0.00490329
100 1 0.116667 0.55 0.0604415 -2.83187 0.00490329
102 1 0.1 0.5 -0.00518586 -2.47715 24.5043
103 1 0.15 0.45 -0.00518586 -2.47715 24.5043
104 1 0.15 0.55 -0.00518586 -2.47715 24.5043
229 1 0.166667 0.5 0.0604415 -2.83187 0.00490329
230 1 0.2 0.5 -0.00518586 -2.47715 24.5043
231 1 0.216667 0.45 0.0604415 -2.83187 0.00490329
232 1 0.216667 0.55 0.0604415 -2.83187 0.00490329
235 1 0.25 0.45 -0.00518586 -2.47715 24.5043
250 1 0.25 0.55 -0.00518586 -2.47715 24.5043
355 1 0.266667 0.5 0.0604415 -2.83187 0.00490329
361 1 0.316667 0.45 0.0604415 -2.83187 0.00490329
380 1 0.316667 0.55 0.0604415 -2.83187 0.00490329
382 1 0.3 0.5 -0.00518586 -2.47715 24.5043
383 1 0.35 0.45 -0.00518586 -2.47715 24.5043
384 1 0.35 0.55 -0.00518586 -2.47715 24.5043
509 1 0.366667 0.5 0.0604415 -2.83187 0.00490329
510 1 0.4 0.5 -0.00518586 -2.47715 24.5043
511 1 0.416667 0.45 0.0604415 -2.83187 0.00490329
512 1 0.416667 0.55 0.0604415 -2.83187 0.00490329
515 1 0.45 0.45 -0.00518586 -2.47715 24.5043
530 1 0.45 0.55 -0.00518586 -2.47715 24.5043
635 1 0.466667 0.5 0.0604415 -2.83187 0.00490329
662 1 0.5 0.5 -0.00518586 -2.47715 24.5043
641 1 0.516667 0.45 0.0604415 -2.83187 0.00490329
660 1 0.516667 0.55 0.0604415 -2.83187 0.00490329
663 1 0.55 0.45 -0.00518586 -2.47715 24.5043
664 1 0.55 0.55 -0.00518586 -2.47715 24.5043
789 1 0.566667 0.5 0.0604415 -2.83187 0.00490329
790 1 0.6 0.5 -0.00518586 -2.47715 24.5043
791 1 0.616667 0.45 0.0604415 -2.83187 0.00490329
792 1 0.616667 0.55 0.0604415 -2.83187 0.00490329
795 1 0.65 0.45 -0.00518586 -2.47715 24.5043
810 1 0.65 0.55 -0.00518586 -2.47715 24.5043
915 1 0.666667 0.5 0.0604415 -2.83187 0.00490329
921 1 0.716667 0.45 0.0604415 -2.83187 0.00490329
940 1 0.716667 0.55 0.0604415 -2.83187 0.00490329
942 1 0.7 0.5 -0.00518586 -2.47715 24.5043
943 1 0.75 0.45 -0.00518586 -2.47715 24.5043
944 1 0.75 0.55 -0.00518586 -2.47715 24.5043
1069 1 0.766667 0.5 0.0604415 -2.83187 0.00490329
1070 1 0.8 0.5 -0.00518586 -2.47715 24.5043
1071 1 0.816667 0.45 0.0604415 -2.83187 0.00490329
1072 1 0.816667 0.55 0.0604415 -2.83187 0.00490329
1075 1 0.85 0.45 -0.00518586 -2.47715 24.5043
1090 1 0.85 0.55 -0.00518586 -2.47715 24.5043
1195 1 0.866667 0.5 0.0604415 -2.83187 0.00490329
1201 1 0.916667 0.45 0.0604415 -2.83187 0.00490329
1220 1 0.916667 0.55 0.0604415 -2.83187 0.00490329
1222 1 0.9 0.5 -0.00518586 -2.47715 24.5043
1223 1 0.95 0.45 -0.00518586 -2.47715 24.5043
1224 1 0.95 0.55 -0.00518586 -2.47715 24.5043
1338 1 0.966667 0.5 0.0604415 -2.83187 0.00490329
18 1 0 0.7 -0.00518586 -2.47715 24.5043
19 1 0.0166667 0.65 0.0604415 -2.83187 0.00490329
21 1 0 0.6 -0.00518586 -2.47715 24.5043
23 1 0.05 0.65 -0.00518586 -2.47715 24.5043
95 1 0.0666667 0.7 0.0604415 -2.83187 0.00490329
98 1 0.0666667 0.6 0.0604415 -2.83187 0.00490329
99 1 0.1 0.6 -0.00518586 -2.47715 24.5043
101 1 0.116667 0.65 0.0604415 -2.83187 0.00490329
114 1 0.1 0.7 -0.00518586 -2.47715 24.5043
115 1 0.15 0.65 -0.00518586 -2.47715 24.5043
226 1 0.166667 0.6 0.0604415 -2.83187 0.00490329
245 1 0.166667 0.7 0.0604415 -2.83187 0.00490329
246 1 0.2 0.7 -0.00518586 -2.47715 24.5043
247 1 0.216667 0.65 0.0604415 -2.83187 0.00490329
249 1 0.2 0.6 -0.00518586 -2.47715 24.5043
251 1 0.25 0.65 -0.00518586 -2.47715 24.5043
375 1 0.266667 0.7 0.0604415 -2.83187 0.00490329
378 1 0.266667 0.6 0.0604415 -2.83187 0.00490329
379 1 0.3 0.6 -0.00518586 -2.47715 24.5043
381 1 0.316667 0.65 0.0604415 -2.83187 0.00490329
394 1 0.3 0.7 -0.00518586 -2.47715 24.5043
395 1 0.35 0.65 -0.00518586 -2.47715 24.5043
506 1 0.366667 0.6 0.0604415 -2.83187 0.00490329
525 1 0.366667 0.7 0.0604415 -2.83187 0.00490329
526 1 0.4 0.7 -0.00518586 -2.47715 24.5043
527 1 0.416667 0.65 0.0604415 -2.83187 0.00490329
529 1 0.4 0.6 -0.00518586 -2.47715 24.5043
531 1 0.45 0.65 -0.00518586 -2.47715 24.5043
655 1 0.466667 0.7 0.0604415 -2.83187 0.00490329
658 1 0.466667 0.6 0.0604415 -2.83187 0.00490329
659 1 0.5 0.6 -0.00518586 -2.47715 24.5043
674 1 0.5 0.7 -0.00518586 -2.47715 24.5043
661 1 0.516667 0.65 0.0604415 -2.83187 0.00490329
675 1 0.55 0.65 -0.00518586 -2.47715 24.5043
786 1 0.566667 0.6 0.0604415 -2.83187 0.00490329
805 1 0.566667 0.7 0.0604415 -2.83187 0.00490329
806 1 0.6 0.7 -0.00518586 -2.47715 24.5043
807 1 0.616667 0.65 0.0604415 -2.83187 0.00490329
809 1 0.6 0.6 -0.00518586 -2.47715 24.5043
811 1 0.65 0.65 -0.00518586 -2.47715 24.5043
935 1 0.666667 0.7 0.0604415 -2.83187 0.00490329
938 1 0.666667 0.6 0.0604415 -2.83187 0.00490329
939 1 0.7 0.6 -0.00518586 -2.47715 24.5043
941 1 0.716667 0.65 0.0604415 -2.83187 0.00490329
954 1 0.7 0.7 -0.00518586 -2.47715 24.5043
955 1 0.75 0.65 -0.00518586 -2.47715 24.5043
1066 1 0.766667 0.6 0.0604415 -2.83187 0.00490329
1085 1 0.766667 0.7 0.0604415 -2.83187 0.00490329
1086 1 0.8 0.7 -0.00518586 -2.47715 24.5043
1087 1 0.816667 0.65 0.0604415 -2.83187 0.00490329
1089 1 0.8 0.6 -0.00518586 -2.47715 24.5043
1091 1 0.85 0.65 -0.00518586 -2.47715 24.5043
1215 1 0.866667 0.7 0.0604415 -2.83187 0.00490329
1218 1 0.866667 0.6 0.0604415 -2.83187 0.00490329
1219 1 0.9 0.6 -0.00518586 -2.47715 24.5043
1221 1 0.916667 0.65 0.0604415 -2.83187 0.00490329
1234 1 0.9 0.7 -0.00518586 -2.47715 24.5043
1235 1 0.95 0.65 -0.00518586 -2.47715 24.5043
1335 1 0.966667 0.6 0.0604415 -2.83187 0.00490329
1348 1 0.966667 0.7 0.0604415 -2.83187 0.00490329
20 1 0.0166667 0.75 0.0604415 -2.83187 0.00490329
25 1 0.0166667 0.85 0.0604415 -2.83187 0.00490329
27 1 0 0.8 -0.00518586 -2.47715 24.5043
28 1 0.05 0.75 -0.00518586 -2.47715 24.5043
29 1 0.05 0.85 -0.00518586 -2.47715 24.5043
110 1 0.0666667 0.8 0.0604415 -2.83187 0.00490329
111 1 0.1 0.8 -0.00518586 -2.47715 24.5043
112 1 0.116667 0.75 0.0604415 -2.83187 0.00490329
113 1 0.116667 0.85 0.0604415 -2.83187 0.00490329
116 1 0.15 0.75 -0.00518586 -2.47715 24.5043
119 1 0.15 0.85 -0.00518586 -2.47715 24.5043
242 1 0.166667 0.8 0.0604415 -2.83187 0.00490329
248 1 0.216667 0.75 0.0604415 -2.83187 0.00490329
255 1 0.216667 0.85 0.0604415 -2.83187 0.00490329
257 1 0.2 0.8 -0.00518586 -2.47715 24.5043
258 1 0.25 0.75 -0.00518586 -2.47715 24.5043
259 1 0.25 0.85 -0.00518586 -2.47715 24.5043
390 1 0.266667 0.8 0.0604415 -2.83187 0.00490329
391 1 0.3 0.8 -0.00518586 -2.47715 24.5043
392 1 0.316667 0.75 0.0604415 -2.83187 0.00490329
393 1 0.316667 0.85 0.0604415 -2.83187 0.00490329
396 1 0.35 0.75 -0.00518586 -2.47715 24.5043
399 1 0.35 0.85 -0.00518586 -2.47715 24.5043
522 1 0.366667 0.8 0.0604415 -2.83187 0.00490329
528 1 0.416667 0.75 0.0604415 -2.83187 0.00490329
535 1 0.416667 0.85 0.0604415 -2.83187 0.00490329
537 1 0.4 0.8 -0.00518586 -2.47715 24.5043
538 1 0.45 0.75 -0.00518586 -2.47715 24.5043
539 1 0.45 0.85 -0.00518586 -2.47715 24.5043
670 1 0.466667 0.8 0.0604415 -2.83187 0.00490329
671 1 0.5 0.8 -0.00518586 -2.47715 24.5043
672 1 0.516667 0.75 0.0604415 -2.83187 0.00490329
673 1 0.516667 0.85 0.0604415 -2.83187 0.00490329
676 1 0.55 0.75 -0.00518586 -2.47715 24.5043
679 1 0.55 0.85 -0.00518586 -2.47715 24.5043
802 1 0.566667 0.8 0.0604415 -2.83187 0.00490329
808 1 0.616667 0.75 0.0604415 -2.83187 0.00490329
815 1 0.616667 0.85 0.0604415 -2.83187 0.00490329
817 1 0.6 0.8 -0.00518586 -2.47715 24.5043
818 1 0.65 0.75 -0.00518586 -2.47715 24.5043
819 1 0.65 0.85 -0.00518586 -2.47715 24.5043
950 1 0.666667 0.8 0.0604415 -2.83187 0.00490329
951 1 0.7 0.8 -0.00518586 -2.47715 24.5043
952 1 0.716667 0.75 0.0604415 -2.83187 0.00490329
953 1 0.716667 0.85 0.0604415 -2.83187 0.00490329
956 1 0.75 0.75 -0.00518586 -2.47715 24.5043
959 1 0.75 0.85 -0.00518586 -2.47715 24.5043
1082 1 0.766667 0.8 0.0604415 -2.83187 0.00490329
1088 1 0.816667 0.75 0.0604415 -2.83187 0.00490329
1095 1 0.816667 0.85 0.0604415 -2.83187 0.00490329
1097 1 0.8 0.8 -0.00518586 -2.47715 24.5043
1098 1 0.85 0.75 -0.00518586 -2.47715 24.5043
1099 1 0.85 0.85 -0.00518586 -2.47715 24.5043
1230 1 0.866667 0.8 0.0604415 -2.83187 0.00490329
1231 1 0.9 0.8 -0.00518586 -2.47715 24.5043
1232 1 0.916667 0.75 0.0604415 -2.83187 0.00490329
1233 1 0.916667 0.85 0.0604415 -2.83187 0.00490329
1236 1 0.95 0.75 -0.00518586 -2.47715 24.5043
1239 1 0.95 0.85 -0.00518586 -2.47715 24.5043
1345 1 0.966667 0.8 0.0604415 -2.83187 0.00490329
24 1 0 0.9 -0.00518586 -2.47715 24.5043
26 1 0.0166667 0.95 0.0604415 -2.83187 0.00490329
30 1 0.05 0.95 -0.00518586 -2.47715 24.5043
107 1 0.0666667 0.9 0.0604415 -2.83187 0.00490329
117 1 0.116667 0.95 0.0604415 -2.83187 0.00490329
118 1 0.1 0.9 -0.00518586 -2.47715 24.5043
120 1 0.15 0.95 -0.00518586 -2.47715 24.5043
253 1 0.166667 0.9 0.0604415 -2.83187 0.00490329
254 1 0.2 0.9 -0.00518586 -2.47715 24.5043
256 1 0.216667 0.95 0.0604415 -2.83187 0.00490329
260 1 0.25 0.95 -0.00518586 -2.47715 24.5043
387 1 0.266667 0.9 0.0604415 -2.83187 0.00490329
397 1 0.316667 0.95 0.0604415 -2.83187 0.00490329
398 1 0.3 0.9 -0.00518586 -2.47715 24.5043
400 1 0.35 0.95 -0.00518586 -2.47715 24.5043
533 1 0.366667 0.9 0.0604415 -2.83187 0.00490329
534 1 0.4 0.9 -0.00518586 -2.47715 24.5043
536 1 0.416667 0.95 0.0604415 -2.83187 0.00490329
540 1 0.45 0.95 -0.00518586 -2.47715 24.5043
667 1 0.466667 0.9 0.0604415 -2.83187 0.00490329
678 1 0.5 0.9 -0.00518586 -2.47715 24.5043
677 1 0.516667 0.95 0.0604415 -2.83187 0.00490329
680 1 0.55 0.95 -0.00518586 -2.47715 24.5043
813 1 0.566667 0.9 0.0604415 -2.83187 0.00490329
814 1 0.6 0.9 -0.00518586 -2.47715 24.5043
816 1 0.616667 0.95 0.0604415 -2.83187 0.00490329
820 1 0.65 0.95 -0.00518586 -2.47715 24.5043
947 1 0.666667 0.9 0.0604415 -2.83187 0.00490329
957 1 0.716667 0.95 0.0604415 -2.83187 0.00490329
958 1 0.7 0.9 -0.00518586 -2.47715 24.5043
960 1 0.75 0.95 -0.00518586 -2.47715 24.5043
1093 1 0.766667 0.9 0.0604415 -2.83187 0.00490329
1094 1 0.8 0.9 -0.00518586 -2.47715 24.5043
1096 1 0.816667 0.95 0.0604415 -2.83187 0.00490329
1100 1 0.85 0.95 -0.00518586 -2.47715 24.5043
1227 1 0.866667 0.9 0.0604415 -2.83187 0.00490329
1237 1 0.916667 0.95 0.0604415 -2.83187 0.00490329
1238 1 0.9 0.9 -0.00518586 -2.47715 24.5043
1240 1 0.95 0.95 -0.00518586 -2.47715 24.5043
1350 1 0.966667 0.9 0.0604415 -2.83187 0.00490329
31 1 0 0.1 0.19397 -2.85002 4.48614e-06
34 1 0 0 0.19397 -2.85002 4.48614e-06
35 1 0.0333333 0 0.127213 -2.85115 7.53e-07
36 1 0.05 0.05 0.19397 -2.85002 4.48614e-06
44 1 0.0333333 0.1 0.127213 -2.85115 7.53e-07
46 1 0.0833333 0.05 0.127213 -2.85115 7.53e-07
135 1 0.1 0 0.19397 -2.85002 4.48614e-06
150 1 0.1 0.1 0.19397 -2.85002 4.48614e-06
151 1 0.133333 0.1 0.127213 -2.85115 7.53e-07
152 1 0.15 0.05 0.19397 -2.85002 4.48614e-06
154 1 0.133333 0 0.127213 -2.85115 7.53e-07
156 1 0.183333 0.05 0.127213 -2.85115 7.53e-07
280 1 0.2 0.1 0.19397 -2.85002 4.48614e-06
283 1 0.2 0 0.19397 -2.85002 4.48614e-06
284 1 0.233333 0 0.127213 -2.85115 7.53e-07
285 1 0.25 0.05 0.19397 -2.85002 4.48614e-06
303 1 0.233333 0.1 0.127213 -2.85115 7.53e-07
305 1 0.283333 0.05 0.127213 -2.85115 7.53e-07
415 1 0.3 0 0.19397 -2.85002 4.48614e-06
430 1 0.3 0.1 0.19397 -2.85002 4.48614e-06
431 1 0.333333 0.1 0.127213 -2.85115 7.53e-07
434 1 0.333333 0 0.127213 -2.85115 7.53e-07
432 1 0.35 0.05 0.19397 -2.85002 4.48614e-06
436 1 0.383333 0.05 0.127213 -2.85115 7.53e-07
560 1 0.4 0.1 0.19397 -2.85002 4.48614e-06
563 1 0.4 0 0.19397 -2.85002 4.48614e-06
564 1 0.433333 0 0.127213 -2.85115 7.53e-07
565 1 0.45 0.05 0.19397 -2.85002 4.48614e-06
583 1 0.433333 0.1 0.127213 -2.85115 7.53e-07
585 1 0.483333 0.05 0.127213 -2.85115 7.53e-07
695 1 0.5 0 0.19397 -2.85002 4.48614e-06
710 1 0.5 0.1 0.19397 -2.85002 4.48614e-06
711 1 0.533333 0.1 0.127213 -2.85115 7.53e-07
712 1 0.55 0.05 0.19397 -2.85002 4.48614e-06
714 1 0.533333 0 0.127213 -2.85115 7.53e-07
716 1 0.583333 0.05 0.127213 -2.85115 7.53e-07
840 1 0.6 0.1 0.19397 -2.85002 4.48614e-06
843 1 0.6 0 0.19397 -2.85002 4.48614e-06
844 1 0.633333 0 0.127213 -2.85115 7.53e-07
845 1 0.65 0.05 0.19397 -2.85002 4.48614e-06
863 1 0.633333 0.1 0.127213 -2.85115 7.53e-07
865 1 0.683333 0.05 0.127213 -2.85115 7.53e-07
975 1 0.7 0 0.19397 -2.85002 4.48614e-06
990 1 0.7 0.1 0.19397 -2.85002 4.48614e-06
991 1 0.733333 0.1 0.127213 -2.85115 7.53e-07
992 1 0.75 0.05 0.19397 -2.85002 4.48614e-06
994 1 0.733333 0 0.127213 -2.85115 7.53e-07
996 1 0.783333 0.05 0.127213 -2.85115 7.53e-07
1120 1 0.8 0.1 0.19397 -2.85002 4.48614e-06
1123 1 0.8 0 0.19397 -2.85002 4.48614e-06
1124 1 0.833333 0 0.127213 -2.85115 7.53e-07
1143 1 0.833333 0.1 0.127213 -2.85115 7.53e-07
1125 1 0.85 0.05 0.19397 -2.85002 4.48614e-06
1145 1 0.883333 0.05 0.127213 -2.85115 7.53e-07
1255 1 0.9 0 0.19397 -2.85002 4.48614e-06
1270 1 0.9 0.1 0.19397 -2.85002 4.48614e-06
1271 1 0.933333 0.1 0.127213 -2.85115 7.53e-07
1272 1 0.95 0.05 0.19397 -2.85002 4.48614e-06
1274 1 0.933333 0 0.127213 -2.85115 7.53e-07
1276 1 0.983333 0.05 0.127213 -2.85115 7.53e-07
40 1 0 0.2 0.19397 -2.85002 4.48614e-06
41 1 0.0333333 0.2 0.127213 -2.85115 7.53e-07
42 1 0.05 0.15 0.19397 -2.85002 4.48614e-06
43 1 0.05 0.25 0.19397 -2.85002 4.48614e-06
47 1 0.0833333 0.15 0.127213 -2.85115 7.53e-07
60 1 0.0833333 0.25 0.127213 -2.85115 7.53e-07
147 1 0.1 0.2 0.19397 -2.85002 4.48614e-06
153 1 0.15 0.15 0.19397 -2.85002 4.48614e-06
172 1 0.15 0.25 0.19397 -2.85002 4.48614e-06
174 1 0.133333 0.2 0.127213 -2.85115 7.53e-07
176 1 0.183333 0.15 0.127213 -2.85115 7.53e-07
177 1 0.183333 0.25 0.127213 -2.85115 7.53e-07
299 1 0.2 0.2 0.19397 -2.85002 4.48614e-06
300 1 0.233333 0.2 0.127213 -2.85115 7.53e-07
301 1 0.25 0.15 0.19397 -2.85002 4.48614e-06
302 1 0.25 0.25 0.19397 -2.85002 4.48614e-06
306 1 0.283333 0.15 0.127213 -2.85115 7.53e-07
329 1 0.283333 0.25 0.127213 -2.85115 7.53e-07
427 1 0.3 0.2 0.19397 -2.85002 4.48614e-06
454 1 0.333333 0.2 0.127213 -2.85115 7.53e-07
433 1 0.35 0.15 0.19397 -2.85002 4.48614e-06
452 1 0.35 0.25 0.19397 -2.85002 4.48614e-06
456 1 0.383333 0.15 0.127213 -2.85115 7.53e-07
457 1 0.383333 0.25 0.127213 -2.85115 7.53e-07
579 1 0.4 0.2 0.19397 -2.85002 4.48614e-06
580 1 0.433333 0.2 0.127213 -2.85115 7.53e-07
581 1 0.45 0.15 0.19397 -2.85002 4.48614e-06
582 1 0.45 0.25 0.19397 -2.85002 4.48614e-06
586 1 0.483333 0.15 0.127213 -2.85115 7.53e-07
609 1 0.483333 0.25 0.127213 -2.85115 7.53e-07
707 1 0.5 0.2 0.19397 -2.85002 4.48614e-06
713 1 0.55 0.15 0.19397 -2.85002 4.48614e-06
732 1 0.55 0.25 0.19397 -2.85002 4.48614e-06
734 1 0.533333 0.2 0.127213 -2.85115 7.53e-07
736 1 0.583333 0.15 0.127213 -2.85115 7.53e-07
737 1 0.583333 0.25 0.127213 -2.85115 7.53e-07
859 1 0.6 0.2 0.19397 -2.85002 4.48614e-06
860 1 0.633333 0.2 0.127213 -2.85115 7.53e-07
861 1 0.65 0.15 0.19397 -2.85002 4.48614e-06
862 1 0.65 0.25 0.19397 -2.85002 4.48614e-06
866 1 0.683333 0.15 0.127213 -2.85115 7.53e-07
889 1 0.683333 0.25 0.127213 -2.85115 7.53e-07
987 1 0.7 0.2 0.19397 -2.85002 4.48614e-06
993 1 0.75 0.15 0.19397 -2.85002 4.48614e-06
1012 1 0.75 0.25 0.19397 -2.85002 4.48614e-06
1014 1 0.733333 0.2 0.127213 -2.85115 7.53e-07
1016 1 0.783333 0.15 0.127213 -2.85115 7.53e-07
1017 1 0.783333 0.25 0.127213 -2.85115 7.53e-07
1139 1 0.8 0.2 0.19397 -2.85002 4.48614e-06
1140 1 0.833333 0.2 0.127213 -2.85115 7.53e-07
1141 1 0.85 0.15 0.19397 -2.85002 4.48614e-06
1142 1 0.85 0.25 0.19397 -2.85002 4.48614e-06
1146 1 0.883333 0.15 0.127213 -2.85115 7.53e-07
1169 1 0.883333 0.25 0.127213 -2.85115 7.53e-07
1267 1 0.9 0.2 0.19397 -2.85002 4.48614e-06
1273 1 0.95 0.15 0.19397 -2.85002 4.48614e-06
1292 1 0.95 0.25 0.19397 -2.85002 4.48614e-06
1294 1 0.933333 0.2 0.127213 -2.85115 7.53e-07
1296 1 0.983333 0.15 0.127213 -2.85115 7.53e-07
1297 1 0.983333 0.25 0.127213 -2.85115 7.53e-07
37 1 0 0.3 0.19397 -2.85002 4.48614e-06
54 1 8.86546e-18 0.4 0.19397 -2.85002 4.48614e-06
55 1 0.0333333 0.4 0.127213 -2.85115 7.53e-07
56 1 0.05 0.35 0.19397 -2.85002 4.48614e-06
58 1 0.0333333 0.3 0.127213 -2.85115 7.53e-07
61 1 0.0833333 0.35 0.127213 -2.85115 7.53e-07
167 1 0.1 0.4 0.19397 -2.85002 4.48614e-06
170 1 0.1 0.3 0.19397 -2.85002 4.48614e-06
171 1 0.133333 0.3 0.127213 -2.85115 7.53e-07
173 1 0.15 0.35 0.19397 -2.85002 4.48614e-06
201 1 0.133333 0.4 0.127213 -2.85115 7.53e-07
203 1 0.183333 0.35 0.127213 -2.85115 7.53e-07
296 1 0.2 0.3 0.19397 -2.85002 4.48614e-06
323 1 0.2 0.4 0.19397 -2.85002 4.48614e-06
324 1 0.233333 0.4 0.127213 -2.85115 7.53e-07
325 1 0.25 0.35 0.19397 -2.85002 4.48614e-06
327 1 0.233333 0.3 0.127213 -2.85115 7.53e-07
330 1 0.283333 0.35 0.127213 -2.85115 7.53e-07
447 1 0.3 0.4 0.19397 -2.85002 4.48614e-06
450 1 0.3 0.3 0.19397 -2.85002 4.48614e-06
451 1 0.333333 0.3 0.127213 -2.85115 7.53e-07
481 1 0.333333 0.4 0.127213 -2.85115 7.53e-07
453 1 0.35 0.35 0.19397 -2.85002 4.48614e-06
483 1 0.383333 0.35 0.127213 -2.85115 7.53e-07
576 1 0.4 0.3 0.19397 -2.85002 4.48614e-06
603 1 0.4 0.4 0.19397 -2.85002 4.48614e-06
604 1 0.433333 0.4 0.127213 -2.85115 7.53e-07
605 1 0.45 0.35 0.19397 -2.85002 4.48614e-06
607 1 0.433333 0.3 0.127213 -2.85115 7.53e-07
610 1 0.483333 0.35 0.127213 -2.85115 7.53e-07
727 1 0.5 0.4 0.19397 -2.85002 4.48614e-06
730 1 0.5 0.3 0.19397 -2.85002 4.48614e-06
731 1 0.533333 0.3 0.127213 -2.85115 7.53e-07
733 1 0.55 0.35 0.19397 -2.85002 4.48614e-06
761 1 0.533333 0.4 0.127213 -2.85115 7.53e-07
763 1 0.583333 0.35 0.127213 -2.85115 7.53e-07
856 1 0.6 0.3 0.19397 -2.85002 4.48614e-06
883 1 0.6 0.4 0.19397 -2.85002 4.48614e-06
884 1 0.633333 0.4 0.127213 -2.85115 7.53e-07
885 1 0.65 0.35 0.19397 -2.85002 4.48614e-06
887 1 0.633333 0.3 0.127213 -2.85115 7.53e-07
890 1 0.683333 0.35 0.127213 -2.85115 7.53e-07
1007 1 0.7 0.4 0.19397 -2.85002 4.48614e-06
1010 1 0.7 0.3 0.19397 -2.85002 4.48614e-06
1011 1 0.733333 0.3 0.127213 -2.85115 7.53e-07
1013 1 0.75 0.35 0.19397 -2.85002 4.48614e-06
1041 1 0.733333 0.4 0.127213 -2.85115 7.53e-07
1043 1 0.783333 0.35 0.127213 -2.85115 7.53e-07
1136 1 0.8 0.3 0.19397 -2.85002 4.48614e-06
1163 1 0.8 0.4 0.19397 -2.85002 4.48614e-06
1164 1 0.833333 0.4 0.127213 -2.85115 7.53e-07
1167 1 0.833333 0.3 0.127213 -2.85115 7.53e-07
1165 1 0.85 0.35 0.19397 -2.85002 4.48614e-06
1170 1 0.883333 0.35 0.127213 -2.85115 7.53e-07
1287 1 0.9 0.4 0.19397 -2.85002 4.48614e-06
1290 1 0.9 0.3 0.19397 -2.85002 4.48614e-06
1291 1 0.933333 0.3 0.127213 -2.85115 7.53e-07
1293 1 0.95 0.35 0.19397 -2.85002 4.48614e-06
1316 1 0.933333 0.4 0.127213 -2.85115 7.53e-07
1318 1 0.983333 0.35 0.127213 -2.85115 7.53e-07
51 1 0 0.5 0.19397 -2.85002 4.48614e-06
57 1 0.05 0.45 0.19397 -2.85002 4.48614e-06
74 1 0.05 0.55 0.19397 -2.85002 4.48614e-06
76 1 0.0333333 0.5 0.127213 -2.85115 7.53e-07
78 1 0.0833333 0.45 0.127213 -2.85115 7.53e-07
79 1 0.0833333 0.55 0.127213 -2.85115 7.53e-07
197 1 0.1 0.5 0.19397 -2.85002 4.48614e-06
198 1 0.133333 0.5 0.127213 -2.85115 7.53e-07
199 1 0.15 0.45 0.19397 -2.85002 4.48614e-06
200 1 0.15 0.55 0.19397 -2.85002 4.48614e-06
204 1 0.183333 0.45 0.127213 -2.85115 7.53e-07
227 1 0.183333 0.55 0.127213 -2.85115 7.53e-07
320 1 0.2 0.5 0.19397 -2.85002 4.48614e-06
326 1 0.25 0.45 0.19397 -2.85002 4.48614e-06
352 1 0.25 0.55 0.19397 -2.85002 4.48614e-06
354 1 0.233333 0.5 0.127213 -2.85115 7.53e-07
356 1 0.283333 0.45 0.127213 -2.85115 7.53e-07
357 1 0.283333 0.55 0.127213 -2.85115 7.53e-07
477 1 0.3 0.5 0.19397 -2.85002 4.48614e-06
478 1 0.333333 0.5 0.127213 -2.85115 7.53e-07
479 1 0.35 0.45 0.19397 -2.85002 4.48614e-06
480 1 0.35 0.55 0.19397 -2.85002 4.48614e-06
484 1 0.383333 0.45 0.127213 -2.85115 7.53e-07
507 1 0.383333 0.55 0.127213 -2.85115 7.53e-07
600 1 0.4 0.5 0.19397 -2.85002 4.48614e-06
606 1 0.45 0.45 0.19397 -2.85002 4.48614e-06
632 1 0.45 0.55 0.19397 -2.85002 4.48614e-06
634 1 0.433333 0.5 0.127213 -2.85115 7.53e-07
636 1 0.483333 0.45 0.127213 -2.85115 7.53e-07
637 1 0.483333 0.55 0.127213 -2.85115 7.53e-07
757 1 0.5 0.5 0.19397 -2.85002 4.48614e-06
758 1 0.533333 0.5 0.127213 -2.85115 7.53e-07
759 1 0.55 0.45 0.19397 -2.85002 4.48614e-06
760 1 0.55 0.55 0.19397 -2.85002 4.48614e-06
764 1 0.583333 0.45 0.127213 -2.85115 7.53e-07
787 1 0.583333 0.55 0.127213 -2.85115 7.53e-07
880 1 0.6 0.5 0.19397 -2.85002 4.48614e-06
886 1 0.65 0.45 0.19397 -2.85002 4.48614e-06
912 1 0.65 0.55 0.19397 -2.85002 4.48614e-06
914 1 0.633333 0.5 0.127213 -2.85115 7.53e-07
916 1 0.683333 0.45 0.127213 -2.85115 7.53e-07
917 1 0.683333 0.55 0.127213 -2.85115 7.53e-07
1037 1 0.7 0.5 0.19397 -2.85002 4.48614e-06
1038 1 0.733333 0.5 0.127213 -2.85115 7.53e-07
1039 1 0.75 0.45 0.19397 -2.85002 4.48614e-06
1040 1 0.75 0.55 0.19397 -2.85002 4.48614e-06
1044 1 0.783333 0.45 0.127213 -2.85115 7.53e-07
1067 1 0.783333 0.55 0.127213 -2.85115 7.53e-07
1160 1 0.8 0.5 0.19397 -2.85002 4.48614e-06
1194 1 0.833333 0.5 0.127213 -2.85115 7.53e-07
1166 1 0.85 0.45 0.19397 -2.85002 4.48614e-06
1192 1 0.85 0.55 0.19397 -2.85002 4.48614e-06
1196 1 0.883333 0.45 0.127213 -2.85115 7.53e-07
1197 1 0.883333 0.55 0.127213 -2.85115 7.53e-07
1312 1 0.9 0.5 0.19397 -2.85002 4.48614e-06
1313 1 0.933333 0.5 0.127213 -2.85115 7.53e-07
1314 1 0.95 0.45 0.19397 -2.85002 4.48614e-06
1315 1 0.95 0.55 0.19397 -2.85002 4.48614e-06
1319 1 0.983333 0.45 0.127213 -2.85115 7.53e-07
1336 1 0.983333 0.55 0.127213 -2.85115 7.53e-07
69 1 1.77309e-17 0.7 0.19397 -2.85002 4.48614e-06
72 1 0 0.6 0.19397 -2.85002 4.48614e-06
73 1 0.0333333 0.6 0.127213 -2.85115 7.53e-07
75 1 0.05 0.65 0.19397 -2.85002 4.48614e-06