ITEM: TIMESTEP
64
ITEM: NUMBER OF ATOMS
3200
ITEM: BOX BOUNDS pp pp ss
0.0000000000000000e+00 5.0092067021360698e+01
0.0000000000000000e+00 2.8920668379047399e+01
3.8451742731260487e-02 3.5381988531723906e+01
ITEM: ATOMS id type xs ys zs c_peratom c_csym
1 1 0 0.1 -0.00541354 -2.4771 24.5083
2 1 0.0166667 0.05 0.0602219 -2.83187 0.00501109
4 1 0 0 -0.00541354 -2.4771 24.5083
5 1 0.05 0.05 -0.00541354 -2.4771 24.5083
45 1 0.0666667 0.1 0.0602219 -2.83187 0.00501109
48 1 0.0666667 0 0.0602219 -2.83187 0.00501109
49 1 0.1 0 -0.00541354 -2.4771 24.5083
50 1 0.116667 0.05 0.0602219 -2.83187 0.00501109
66 1 0.1 0.1 -0.00541354 -2.4771 24.5083
67 1 0.15 0.05 -0.00541354 -2.4771 24.5083
155 1 0.166667 0 0.0602219 -2.83187 0.00501109
178 1 0.166667 0.1 0.0602219 -2.83187 0.00501109
179 1 0.2 0.1 -0.00541354 -2.4771 24.5083
180 1 0.216667 0.05 0.0602219 -2.83187 0.00501109
182 1 0.2 0 -0.00541354 -2.4771 24.5083
183 1 0.25 0.05 -0.00541354 -2.4771 24.5083
304 1 0.266667 0.1 0.0602219 -2.83187 0.00501109
307 1 0.266667 0 0.0602219 -2.83187 0.00501109
308 1 0.3 0 -0.00541354 -2.4771 24.5083
309 1 0.316667 0.05 0.0602219 -2.83187 0.00501109
335 1 0.3 0.1 -0.00541354 -2.4771 24.5083
336 1 0.35 0.05 -0.00541354 -2.4771 24.5083
435 1 0.366667 0 0.0602219 -2.83187 0.00501109
458 1 0.366667 0.1 0.0602219 -2.83187 0.00501109
459 1 0.4 0.1 -0.00541354 -2.4771 24.5083
460 1 0.416667 0.05 0.0602219 -2.83187 0.00501109
462 1 0.4 0 -0.00541354 -2.4771 24.5083
463 1 0.45 0.05 -0.00541354 -2.4771 24.5083
584 1 0.466667 0.1 0.0602219 -2.83187 0.00501109
587 1 0.466667 0 0.0602219 -2.83187 0.00501109
588 1 0.5 0 -0.00541354 -2.4771 24.5083
615 1 0.5 0.1 -0.00541354 -2.4771 24.5083
589 1 0.516667 0.05 0.0602219 -2.83187 0.00501109
616 1 0.55 0.05 -0.00541354 -2.4771 24.5083
715 1 0.566667 0 0.0602219 -2.83187 0.00501109
738 1 0.566667 0.1 0.0602219 -2.83187 0.00501109
739 1 0.6 0.1 -0.00541354 -2.4771 24.5083
740 1 0.616667 0.05 0.0602219 -2.83187 0.00501109
742 1 0.6 0 -0.00541354 -2.4771 24.5083
743 1 0.65 0.05 -0.00541354 -2.4771 24.5083
864 1 0.666667 0.1 0.0602219 -2.83187 0.00501109
867 1 0.666667 0 0.0602219 -2.83187 0.00501109
868 1 0.7 0 -0.00541354 -2.4771 24.5083
869 1 0.716667 0.05 0.0602219 -2.83187 0.00501109
895 1 0.7 0.1 -0.00541354 -2.4771 24.5083
896 1 0.75 0.05 -0.00541354 -2.4771 24.5083
995 1 0.766667 0 0.0602219 -2.83187 0.00501109
1018 1 0.766667 0.1 0.0602219 -2.83187 0.00501109
1019 1 0.8 0.1 -0.00541354 -2.4771 24.5083
1020 1 0.816667 0.05 0.0602219 -2.83187 0.00501109
1022 1 0.8 0 -0.00541354 -2.4771 24.5083
1023 1 0.85 0.05 -0.00541354 -2.4771 24.5083
1144 1 0.866667 0.1 0.0602219 -2.83187 0.00501109
1147 1 0.866667 0 0.0602219 -2.83187 0.00501109
1148 1 0.9 0 -0.00541354 -2.4771 24.5083
1149 1 0.916667 0.05 0.0602219 -2.83187 0.00501109
1175 1 0.9 0.1 -0.00541354 -2.4771 24.5083
1176 1 0.95 0.05 -0.00541354 -2.4771 24.5083
1275 1 0.966667 0 0.0602219 -2.83187 0.00501109
1298 1 0.966667 0.1 0.0602219 -2.83187 0.00501109
3 1 0.0166667 0.15 0.0602219 -2.83187 0.00501109
7 1 0.0166667 0.25 0.0602219 -2.83187 0.00501109
9 1 0 0.2 -0.00541354 -2.4771 24.5083
10 1 0.05 0.15 -0.00541354 -2.4771 24.5083
11 1 0.05 0.25 -0.00541354 -2.4771 24.5083
62 1 0.0666667 0.2 0.0602219 -2.83187 0.00501109
63 1 0.1 0.2 -0.00541354 -2.4771 24.5083
64 1 0.116667 0.15 0.0602219 -2.83187 0.00501109
65 1 0.116667 0.25 0.0602219 -2.83187 0.00501109
68 1 0.15 0.15 -0.00541354 -2.4771 24.5083
85 1 0.15 0.25 -0.00541354 -2.4771 24.5083
175 1 0.166667 0.2 0.0602219 -2.83187 0.00501109
181 1 0.216667 0.15 0.0602219 -2.83187 0.00501109
207 1 0.216667 0.25 0.0602219 -2.83187 0.00501109
209 1 0.2 0.2 -0.00541354 -2.4771 24.5083
210 1 0.25 0.15 -0.00541354 -2.4771 24.5083
211 1 0.25 0.25 -0.00541354 -2.4771 24.5083
331 1 0.266667 0.2 0.0602219 -2.83187 0.00501109
332 1 0.3 0.2 -0.00541354 -2.4771 24.5083
333 1 0.316667 0.15 0.0602219 -2.83187 0.00501109
334 1 0.316667 0.25 0.0602219 -2.83187 0.00501109
337 1 0.35 0.15 -0.00541354 -2.4771 24.5083
363 1 0.35 0.25 -0.00541354 -2.4771 24.5083
455 1 0.366667 0.2 0.0602219 -2.83187 0.00501109
461 1 0.416667 0.15 0.0602219 -2.83187 0.00501109
487 1 0.416667 0.25 0.0602219 -2.83187 0.00501109
489 1 0.4 0.2 -0.00541354 -2.4771 24.5083
490 1 0.45 0.15 -0.00541354 -2.4771 24.5083
491 1 0.45 0.25 -0.00541354 -2.4771 24.5083
611 1 0.466667 0.2 0.0602219 -2.83187 0.00501109
612 1 0.5 0.2 -0.00541354 -2.4771 24.5083
613 1 0.516667 0.15 0.0602219 -2.83187 0.00501109
614 1 0.516667 0.25 0.0602219 -2.83187 0.00501109
617 1 0.55 0.15 -0.00541354 -2.4771 24.5083
643 1 0.55 0.25 -0.00541354 -2.4771 24.5083
735 1 0.566667 0.2 0.0602219 -2.83187 0.00501109
741 1 0.616667 0.15 0.0602219 -2.83187 0.00501109
767 1 0.616667 0.25 0.0602219 -2.83187 0.00501109
769 1 0.6 0.2 -0.00541354 -2.4771 24.5083
770 1 0.65 0.15 -0.00541354 -2.4771 24.5083
771 1 0.65 0.25 -0.00541354 -2.4771 24.5083
891 1 0.666667 0.2 0.0602219 -2.83187 0.00501109
892 1 0.7 0.2 -0.00541354 -2.4771 24.5083
893 1 0.716667 0.15 0.0602219 -2.83187 0.00501109
894 1 0.716667 0.25 0.0602219 -2.83187 0.00501109
897 1 0.75 0.15 -0.00541354 -2.4771 24.5083
923 1 0.75 0.25 -0.00541354 -2.4771 24.5083
1015 1 0.766667 0.2 0.0602219 -2.83187 0.00501109
1021 1 0.816667 0.15 0.0602219 -2.83187 0.00501109
1047 1 0.816667 0.25 0.0602219 -2.83187 0.00501109
1049 1 0.8 0.2 -0.00541354 -2.4771 24.5083
1050 1 0.85 0.15 -0.00541354 -2.4771 24.5083
1051 1 0.85 0.25 -0.00541354 -2.4771 24.5083
1171 1 0.866667 0.2 0.0602219 -2.83187 0.00501109
1172 1 0.9 0.2 -0.00541354 -2.4771 24.5083
1173 1 0.916667 0.15 0.0602219 -2.83187 0.00501109
1174 1 0.916667 0.25 0.0602219 -2.83187 0.00501109
1177 1 0.95 0.15 -0.00541354 -2.4771 24.5083
1203 1 0.95 0.25 -0.00541354 -2.4771 24.5083
1295 1 0.966667 0.2 0.0602219 -2.83187 0.00501109
6 1 0 0.3 -0.00541354 -2.4771 24.5083
8 1 0.0166667 0.35 0.0602219 -2.83187 0.00501109
15 1 0 0.4 -0.00541354 -2.4771 24.5083
16 1 0.05 0.35 -0.00541354 -2.4771 24.5083
59 1 0.0666667 0.3 0.0602219 -2.83187 0.00501109
80 1 0.0666667 0.4 0.0602219 -2.83187 0.00501109
81 1 0.1 0.4 -0.00541354 -2.4771 24.5083
82 1 0.116667 0.35 0.0602219 -2.83187 0.00501109
84 1 0.1 0.3 -0.00541354 -2.4771 24.5083
86 1 0.15 0.35 -0.00541354 -2.4771 24.5083
202 1 0.166667 0.4 0.0602219 -2.83187 0.00501109
205 1 0.166667 0.3 0.0602219 -2.83187 0.00501109
206 1 0.2 0.3 -0.00541354 -2.4771 24.5083
208 1 0.216667 0.35 0.0602219 -2.83187 0.00501109
233 1 0.2 0.4 -0.00541354 -2.4771 24.5083
234 1 0.25 0.35 -0.00541354 -2.4771 24.5083
328 1 0.266667 0.3 0.0602219 -2.83187 0.00501109
358 1 0.266667 0.4 0.0602219 -2.83187 0.00501109
359 1 0.3 0.4 -0.00541354 -2.4771 24.5083
360 1 0.316667 0.35 0.0602219 -2.83187 0.00501109
362 1 0.3 0.3 -0.00541354 -2.4771 24.5083
364 1 0.35 0.35 -0.00541354 -2.4771 24.5083
482 1 0.366667 0.4 0.0602219 -2.83187 0.00501109
485 1 0.366667 0.3 0.0602219 -2.83187 0.00501109
486 1 0.4 0.3 -0.00541354 -2.4771 24.5083
488 1 0.416667 0.35 0.0602219 -2.83187 0.00501109
513 1 0.4 0.4 -0.00541354 -2.4771 24.5083
514 1 0.45 0.35 -0.00541354 -2.4771 24.5083
608 1 0.466667 0.3 0.0602219 -2.83187 0.00501109
638 1 0.466667 0.4 0.0602219 -2.83187 0.00501109
639 1 0.5 0.4 -0.00541354 -2.4771 24.5083
642 1 0.5 0.3 -0.00541354 -2.4771 24.5083
640 1 0.516667 0.35 0.0602219 -2.83187 0.00501109
644 1 0.55 0.35 -0.00541354 -2.4771 24.5083
762 1 0.566667 0.4 0.0602219 -2.83187 0.00501109
765 1 0.566667 0.3 0.0602219 -2.83187 0.00501109
766 1 0.6 0.3 -0.00541354 -2.4771 24.5083
768 1 0.616667 0.35 0.0602219 -2.83187 0.00501109
793 1 0.6 0.4 -0.00541354 -2.4771 24.5083
794 1 0.65 0.35 -0.00541354 -2.4771 24.5083
888 1 0.666667 0.3 0.0602219 -2.83187 0.00501109
918 1 0.666667 0.4 0.0602219 -2.83187 0.00501109
919 1 0.7 0.4 -0.00541354 -2.4771 24.5083
920 1 0.716667 0.35 0.0602219 -2.83187 0.00501109
922 1 0.7 0.3 -0.00541354 -2.4771 24.5083
924 1 0.75 0.35 -0.00541354 -2.4771 24.5083
1042 1 0.766667 0.4 0.0602219 -2.83187 0.00501109
1045 1 0.766667 0.3 0.0602219 -2.83187 0.00501109
1046 1 0.8 0.3 -0.00541354 -2.4771 24.5083
1048 1 0.816667 0.35 0.0602219 -2.83187 0.00501109
1073 1 0.8 0.4 -0.00541354 -2.4771 24.5083
1074 1 0.85 0.35 -0.00541354 -2.4771 24.5083
1168 1 0.866667 0.3 0.0602219 -2.83187 0.00501109
1198 1 0.866667 0.4 0.0602219 -2.83187 0.00501109
1199 1 0.9 0.4 -0.00541354 -2.4771 24.5083
1200 1 0.916667 0.35 0.0602219 -2.83187 0.00501109
1202 1 0.9 0.3 -0.00541354 -2.4771 24.5083
1204 1 0.95 0.35 -0.00541354 -2.4771 24.5083
1317 1 0.966667 0.4 0.0602219 -2.83187 0.00501109
1320 1 0.966667 0.3 0.0602219 -2.83187 0.00501109
12 1 0 0.5 -0.00541354 -2.4771 24.5083
13 1 0.0166667 0.45 0.0602219 -2.83187 0.00501109
14 1 0.0166667 0.55 0.0602219 -2.83187 0.00501109
17 1 0.05 0.45 -0.00541354 -2.4771 24.5083
22 1 0.05 0.55 -0.00541354 -2.4771 24.5083
77 1 0.0666667 0.5 0.0602219 -2.83187 0.00501109
83 1 0.116667 0.45 0.0602219 -2.83187 0.00501109
100 1 0.116667 0.55 0.0602219 -2.83187 0.00501109
102 1 0.1 0.5 -0.00541354 -2.4771 24.5083
103 1 0.15 0.45 -0.00541354 -2.4771 24.5083
104 1 0.15 0.55 -0.00541354 -2.4771 24.5083
229 1 0.166667 0.5 0.0602219 -2.83187 0.00501109
230 1 0.2 0.5 -0.00541354 -2.4771 24.5083
231 1 0.216667 0.45 0.0602219 -2.83187 0.00501109
232 1 0.216667 0.55 0.0602219 -2.83187 0.00501109
235 1 0.25 0.45 -0.00541354 -2.4771 24.5083
250 1 0.25 0.55 -0.00541354 -2.4771 24.5083
355 1 0.266667 0.5 0.0602219 -2.83187 0.00501109
361 1 0.316667 0.45 0.0602219 -2.83187 0.00501109
380 1 0.316667 0.55 0.0602219 -2.83187 0.00501109
382 1 0.3 0.5 -0.00541354 -2.4771 24.5083
383 1 0.35 0.45 -0.00541354 -2.4771 24.5083
384 1 0.35 0.55 -0.00541354 -2.4771 24.5083
509 1 0.366667 0.5 0.0602219 -2.83187 0.00501109
510 1 0.4 0.5 -0.00541354 -2.4771 24.5083
511 1 0.416667 0.45 0.0602219 -2.83187 0.00501109
512 1 0.416667 0.55 0.0602219 -2.83187 0.00501109
515 1 0.45 0.45 -0.00541354 -2.4771 24.5083
530 1 0.45 0.55 -0.00541354 -2.4771 24.5083
635 1 0.466667 0.5 0.0602219 -2.83187 0.00501109
662 1 0.5 0.5 -0.00541354 -2.4771 24.5083
641 1 0.516667 0.45 0.0602219 -2.83187 0.00501109
660 1 0.516667 0.55 0.0602219 -2.83187 0.00501109
663 1 0.55 0.45 -0.00541354 -2.4771 24.5083
664 1 0.55 0.55 -0.00541354 -2.4771 24.5083
789 1 0.566667 0.5 0.0602219 -2.83187 0.00501109
790 1 0.6 0.5 -0.00541354 -2.4771 24.5083
791 1 0.616667 0.45 0.0602219 -2.83187 0.00501109
792 1 0.616667 0.55 0.0602219 -2.83187 0.00501109
795 1 0.65 0.45 -0.00541354 -2.4771 24.5083
810 1 0.65 0.55 -0.00541354 -2.4771 24.5083
915 1 0.666667 0.5 0.0602219 -2.83187 0.00501109
921 1 0.716667 0.45 0.0602219 -2.83187 0.00501109
940 1 0.716667 0.55 0.0602219 -2.83187 0.00501109
942 1 0.7 0.5 -0.00541354 -2.4771 24.5083
943 1 0.75 0.45 -0.00541354 -2.4771 24.5083
944 1 0.75 0.55 -0.00541354 -2.4771 24.5083
1069 1 0.766667 0.5 0.0602219 -2.83187 0.00501109
1070 1 0.8 0.5 -0.00541354 -2.4771 24.5083
1071 1 0.816667 0.45 0.0602219 -2.83187 0.00501109
1072 1 0.816667 0.55 0.0602219 -2.83187 0.00501109
1075 1 0.85 0.45 -0.00541354 -2.4771 24.5083
1090 1 0.85 0.55 -0.00541354 -2.4771 24.5083
1195 1 0.866667 0.5 0.0602219 -2.83187 0.00501109
1201 1 0.916667 0.45 0.0602219 -2.83187 0.00501109
1220 1 0.916667 0.55 0.0602219 -2.83187 0.00501109
1222 1 0.9 0.5 -0.00541354 -2.4771 24.5083
1223 1 0.95 0.45 -0.00541354 -2.4771 24.5083
1224 1 0.95 0.55 -0.00541354 -2.4771 24.5083
1338 1 0.966667 0.5 0.0602219 -2.83187 0.00501109
18 1 0 0.7 -0.00541354 -2.4771 24.5083
19 1 0.0166667 0.65 0.0602219 -2.83187 0.00501109
21 1 0 0.6 -0.00541354 -2.4771 24.5083
23 1 0.05 0.65 -0.00541354 -2.4771 24.5083
95 1 0.0666667 0.7 0.0602219 -2.83187 0.00501109
98 1 0.0666667 0.6 0.0602219 -2.83187 0.00501109
99 1 0.1 0.6 -0.00541354 -2.4771 24.5083
101 1 0.116667 0.65 0.0602219 -2.83187 0.00501109
114 1 0.1 0.7 -0.00541354 -2.4771 24.5083
115 1 0.15 0.65 -0.00541354 -2.4771 24.5083
226 1 0.166667 0.6 0.0602219 -2.83187 0.00501109
245 1 0.166667 0.7 0.0602219 -2.83187 0.00501109
246 1 0.2 0.7 -0.00541354 -2.4771 24.5083
247 1 0.216667 0.65 0.0602219 -2.83187 0.00501109
249 1 0.2 0.6 -0.00541354 -2.4771 24.5083
251 1 0.25 0.65 -0.00541354 -2.4771 24.5083
375 1 0.266667 0.7 0.0602219 -2.83187 0.00501109
378 1 0.266667 0.6 0.0602219 -2.83187 0.00501109
379 1 0.3 0.6 -0.00541354 -2.4771 24.5083
381 1 0.316667 0.65 0.0602219 -2.83187 0.00501109
394 1 0.3 0.7 -0.00541354 -2.4771 24.5083
395 1 0.35 0.65 -0.00541354 -2.4771 24.5083
506 1 0.366667 0.6 0.0602219 -2.83187 0.00501109
525 1 0.366667 0.7 0.0602219 -2.83187 0.00501109
526 1 0.4 0.7 -0.00541354 -2.4771 24.5083
527 1 0.416667 0.65 0.0602219 -2.83187 0.00501109
529 1 0.4 0.6 -0.00541354 -2.4771 24.5083
531 1 0.45 0.65 -0.00541354 -2.4771 24.5083
655 1 0.466667 0.7 0.0602219 -2.83187 0.00501109
658 1 0.466667 0.6 0.0602219 -2.83187 0.00501109
659 1 0.5 0.6 -0.00541354 -2.4771 24.5083
674 1 0.5 0.7 -0.00541354 -2.4771 24.5083
661 1 0.516667 0.65 0.0602219 -2.83187 0.00501109
675 1 0.55 0.65 -0.00541354 -2.4771 24.5083
786 1 0.566667 0.6 0.0602219 -2.83187 0.00501109
805 1 0.566667 0.7 0.0602219 -2.83187 0.00501109
806 1 0.6 0.7 -0.00541354 -2.4771 24.5083
807 1 0.616667 0.65 0.0602219 -2.83187 0.00501109
809 1 0.6 0.6 -0.00541354 -2.4771 24.5083
811 1 0.65 0.65 -0.00541354 -2.4771 24.5083
935 1 0.666667 0.7 0.0602219 -2.83187 0.00501109
938 1 0.666667 0.6 0.0602219 -2.83187 0.00501109
939 1 0.7 0.6 -0.00541354 -2.4771 24.5083
941 1 0.716667 0.65 0.0602219 -2.83187 0.00501109
954 1 0.7 0.7 -0.00541354 -2.4771 24.5083
955 1 0.75 0.65 -0.00541354 -2.4771 24.5083
1066 1 0.766667 0.6 0.0602219 -2.83187 0.00501109
1085 1 0.766667 0.7 0.0602219 -2.83187 0.00501109
1086 1 0.8 0.7 -0.00541354 -2.4771 24.5083
1087 1 0.816667 0.65 0.0602219 -2.83187 0.00501109
1089 1 0.8 0.6 -0.00541354 -2.4771 24.5083
1091 1 0.85 0.65 -0.00541354 -2.4771 24.5083
1215 1 0.866667 0.7 0.0602219 -2.83187 0.00501109
1218 1 0.866667 0.6 0.0602219 -2.83187 0.00501109
1219 1 0.9 0.6 -0.00541354 -2.4771 24.5083
1221 1 0.916667 0.65 0.0602219 -2.83187 0.00501109
1234 1 0.9 0.7 -0.00541354 -2.4771 24.5083
1235 1 0.95 0.65 -0.00541354 -2.4771 24.5083
1335 1 0.966667 0.6 0.0602219 -2.83187 0.00501109
1348 1 0.966667 0.7 0.0602219 -2.83187 0.00501109
20 1 0.0166667 0.75 0.0602219 -2.83187 0.00501109
25 1 0.0166667 0.85 0.0602219 -2.83187 0.00501109
27 1 0 0.8 -0.00541354 -2.4771 24.5083
28 1 0.05 0.75 -0.00541354 -2.4771 24.5083
29 1 0.05 0.85 -0.00541354 -2.4771 24.5083
110 1 0.0666667 0.8 0.0602219 -2.83187 0.00501109
111 1 0.1 0.8 -0.00541354 -2.4771 24.5083
112 1 0.116667 0.75 0.0602219 -2.83187 0.00501109
113 1 0.116667 0.85 0.0602219 -2.83187 0.00501109
116 1 0.15 0.75 -0.00541354 -2.4771 24.5083
119 1 0.15 0.85 -0.00541354 -2.4771 24.5083
242 1 0.166667 0.8 0.0602219 -2.83187 0.00501109
248 1 0.216667 0.75 0.0602219 -2.83187 0.00501109
255 1 0.216667 0.85 0.0602219 -2.83187 0.00501109
257 1 0.2 0.8 -0.00541354 -2.4771 24.5083
258 1 0.25 0.75 -0.00541354 -2.4771 24.5083
259 1 0.25 0.85 -0.00541354 -2.4771 24.5083
390 1 0.266667 0.8 0.0602219 -2.83187 0.00501109
391 1 0.3 0.8 -0.00541354 -2.4771 24.5083
392 1 0.316667 0.75 0.0602219 -2.83187 0.00501109
393 1 0.316667 0.85 0.0602219 -2.83187 0.00501109
396 1 0.35 0.75 -0.00541354 -2.4771 24.5083
399 1 0.35 0.85 -0.00541354 -2.4771 24.5083
522 1 0.366667 0.8 0.0602219 -2.83187 0.00501109
528 1 0.416667 0.75 0.0602219 -2.83187 0.00501109
535 1 0.416667 0.85 0.0602219 -2.83187 0.00501109
537 1 0.4 0.8 -0.00541354 -2.4771 24.5083
538 1 0.45 0.75 -0.00541354 -2.4771 24.5083
539 1 0.45 0.85 -0.00541354 -2.4771 24.5083
670 1 0.466667 0.8 0.0602219 -2.83187 0.00501109
671 1 0.5 0.8 -0.00541354 -2.4771 24.5083
672 1 0.516667 0.75 0.0602219 -2.83187 0.00501109
673 1 0.516667 0.85 0.0602219 -2.83187 0.00501109
676 1 0.55 0.75 -0.00541354 -2.4771 24.5083
679 1 0.55 0.85 -0.00541354 -2.4771 24.5083
802 1 0.566667 0.8 0.0602219 -2.83187 0.00501109
808 1 0.616667 0.75 0.0602219 -2.83187 0.00501109
815 1 0.616667 0.85 0.0602219 -2.83187 0.00501109
817 1 0.6 0.8 -0.00541354 -2.4771 24.5083
818 1 0.65 0.75 -0.00541354 -2.4771 24.5083
819 1 0.65 0.85 -0.00541354 -2.4771 24.5083
950 1 0.666667 0.8 0.0602219 -2.83187 0.00501109
951 1 0.7 0.8 -0.00541354 -2.4771 24.5083
952 1 0.716667 0.75 0.0602219 -2.83187 0.00501109
953 1 0.716667 0.85 0.0602219 -2.83187 0.00501109
956 1 0.75 0.75 -0.00541354 -2.4771 24.5083
959 1 0.75 0.85 -0.00541354 -2.4771 24.5083
1082 1 0.766667 0.8 0.0602219 -2.83187 0.00501109
1088 1 0.816667 0.75 0.0602219 -2.83187 0.00501109
1095 1 0.816667 0.85 0.0602219 -2.83187 0.00501109
1097 1 0.8 0.8 -0.00541354 -2.4771 24.5083
1098 1 0.85 0.75 -0.00541354 -2.4771 24.5083
1099 1 0.85 0.85 -0.00541354 -2.4771 24.5083
1230 1 0.866667 0.8 0.0602219 -2.83187 0.00501109
1231 1 0.9 0.8 -0.00541354 -2.4771 24.5083
1232 1 0.916667 0.75 0.0602219 -2.83187 0.00501109
1233 1 0.916667 0.85 0.0602219 -2.83187 0.00501109
1236 1 0.95 0.75 -0.00541354 -2.4771 24.5083
1239 1 0.95 0.85 -0.00541354 -2.4771 24.5083
1345 1 0.966667 0.8 0.0602219 -2.83187 0.00501109
24 1 0 0.9 -0.00541354 -2.4771 24.5083
26 1 0.0166667 0.95 0.0602219 -2.83187 0.00501109
30 1 0.05 0.95 -0.00541354 -2.4771 24.5083
107 1 0.0666667 0.9 0.0602219 -2.83187 0.00501109
117 1 0.116667 0.95 0.0602219 -2.83187 0.00501109
118 1 0.1 0.9 -0.00541354 -2.4771 24.5083
120 1 0.15 0.95 -0.00541354 -2.4771 24.5083
253 1 0.166667 0.9 0.0602219 -2.83187 0.00501109
254 1 0.2 0.9 -0.00541354 -2.4771 24.5083
256 1 0.216667 0.95 0.0602219 -2.83187 0.00501109
260 1 0.25 0.95 -0.00541354 -2.4771 24.5083
387 1 0.266667 0.9 0.0602219 -2.83187 0.00501109
397 1 0.316667 0.95 0.0602219 -2.83187 0.00501109
398 1 0.3 0.9 -0.00541354 -2.4771 24.5083
400 1 0.35 0.95 -0.00541354 -2.4771 24.5083
533 1 0.366667 0.9 0.0602219 -2.83187 0.00501109
534 1 0.4 0.9 -0.00541354 -2.4771 24.5083
536 1 0.416667 0.95 0.0602219 -2.83187 0.00501109
540 1 0.45 0.95 -0.00541354 -2.4771 24.5083
667 1 0.466667 0.9 0.0602219 -2.83187 0.00501109
678 1 0.5 0.9 -0.00541354 -2.4771 24.5083
677 1 0.516667 0.95 0.0602219 -2.83187 0.00501109
680 1 0.55 0.95 -0.00541354 -2.4771 24.5083
813 1 0.566667 0.9 0.0602219 -2.83187 0.00501109
814 1 0.6 0.9 -0.00541354 -2.4771 24.5083
816 1 0.616667 0.95 0.0602219 -2.83187 0.00501109
820 1 0.65 0.95 -0.00541354 -2.4771 24.5083
947 1 0.666667 0.9 0.0602219 -2.83187 0.00501109
957 1 0.716667 0.95 0.0602219 -2.83187 0.00501109
958 1 0.7 0.9 -0.00541354 -2.4771 24.5083
960 1 0.75 0.95 -0.00541354 -2.4771 24.5083
1093 1 0.766667 0.9 0.0602219 -2.83187 0.00501109
1094 1 0.8 0.9 -0.00541354 -2.4771 24.5083
1096 1 0.816667 0.95 0.0602219 -2.83187 0.00501109
1100 1 0.85 0.95 -0.00541354 -2.4771 24.5083
1227 1 0.866667 0.9 0.0602219 -2.83187 0.00501109
1237 1 0.916667 0.95 0.0602219 -2.83187 0.00501109
1238 1 0.9 0.9 -0.00541354 -2.4771 24.5083
1240 1 0.95 0.95 -0.00541354 -2.4771 24.5083
1350 1 0.966667 0.9 0.0602219 -2.83187 0.00501109
31 1 0 0.1 0.19383 -2.85004 3.9562e-08
34 1 0 0 0.19383 -2.85004 3.9562e-08
35 1 0.0333333 0 0.127014 -2.8512 2.24186e-06
36 1 0.05 0.05 0.19383 -2.85004 3.9562e-08
44 1 0.0333333 0.1 0.127014 -2.8512 2.24186e-06
46 1 0.0833333 0.05 0.127014 -2.8512 2.24186e-06
135 1 0.1 0 0.19383 -2.85004 3.9562e-08
150 1 0.1 0.1 0.19383 -2.85004 3.9562e-08
151 1 0.133333 0.1 0.127014 -2.8512 2.24186e-06
152 1 0.15 0.05 0.19383 -2.85004 3.9562e-08
154 1 0.133333 0 0.127014 -2.8512 2.24186e-06
156 1 0.183333 0.05 0.127014 -2.8512 2.24186e-06
280 1 0.2 0.1 0.19383 -2.85004 3.9562e-08
283 1 0.2 0 0.19383 -2.85004 3.9562e-08
284 1 0.233333 0 0.127014 -2.8512 2.24186e-06
285 1 0.25 0.05 0.19383 -2.85004 3.9562e-08
303 1 0.233333 0.1 0.127014 -2.8512 2.24186e-06
305 1 0.283333 0.05 0.127014 -2.8512 2.24186e-06
415 1 0.3 0 0.19383 -2.85004 3.9562e-08
430 1 0.3 0.1 0.19383 -2.85004 3.9562e-08
431 1 0.333333 0.1 0.127014 -2.8512 2.24186e-06
434 1 0.333333 0 0.127014 -2.8512 2.24186e-06
432 1 0.35 0.05 0.19383 -2.85004 3.9562e-08
436 1 0.383333 0.05 0.127014 -2.8512 2.24186e-06
560 1 0.4 0.1 0.19383 -2.85004 3.9562e-08
563 1 0.4 0 0.19383 -2.85004 3.9562e-08
564 1 0.433333 0 0.127014 -2.8512 2.24186e-06
565 1 0.45 0.05 0.19383 -2.85004 3.9562e-08
583 1 0.433333 0.1 0.127014 -2.8512 2.24186e-06
585 1 0.483333 0.05 0.127014 -2.8512 2.24186e-06
695 1 0.5 0 0.19383 -2.85004 3.9562e-08
710 1 0.5 0.1 0.19383 -2.85004 3.9562e-08
711 1 0.533333 0.1 0.127014 -2.8512 2.24186e-06
712 1 0.55 0.05 0.19383 -2.85004 3.9562e-08
714 1 0.533333 0 0.127014 -2.8512 2.24186e-06
716 1 0.583333 0.05 0.127014 -2.8512 2.24186e-06
840 1 0.6 0.1 0.19383 -2.85004 3.9562e-08
843 1 0.6 0 0.19383 -2.85004 3.9562e-08
844 1 0.633333 0 0.127014 -2.8512 2.24186e-06
845 1 0.65 0.05 0.19383 -2.85004 3.9562e-08
863 1 0.633333 0.1 0.127014 -2.8512 2.24186e-06
865 1 0.683333 0.05 0.127014 -2.8512 2.24186e-06
975 1 0.7 0 0.19383 -2.85004 3.9562e-08
990 1 0.7 0.1 0.19383 -2.85004 3.9562e-08
991 1 0.733333 0.1 0.127014 -2.8512 2.24186e-06
992 1 0.75 0.05 0.19383 -2.85004 3.9562e-08
994 1 0.733333 0 0.127014 -2.8512 2.24186e-06
996 1 0.783333 0.05 0.127014 -2.8512 2.24186e-06
1120 1 0.8 0.1 0.19383 -2.85004 3.9562e-08
1123 1 0.8 0 0.19383 -2.85004 3.9562e-08
1124 1 0.833333 0 0.127014 -2.8512 2.24186e-06
1143 1 0.833333 0.1 0.127014 -2.8512 2.24186e-06
1125 1 0.85 0.05 0.19383 -2.85004 3.9562e-08
1145 1 0.883333 0.05 0.127014 -2.8512 2.24186e-06
1255 1 0.9 0 0.19383 -2.85004 3.9562e-08
1270 1 0.9 0.1 0.19383 -2.85004 3.9562e-08
1271 1 0.933333 0.1 0.127014 -2.8512 2.24186e-06
1272 1 0.95 0.05 0.19383 -2.85004 3.9562e-08
1274 1 0.933333 0 0.127014 -2.8512 2.24186e-06
1276 1 0.983333 0.05 0.127014 -2.8512 2.24186e-06
40 1 0 0.2 0.19383 -2.85004 3.9562e-08
41 1 0.0333333 0.2 0.127014 -2.8512 2.24186e-06
42 1 0.05 0.15 0.19383 -2.85004 3.9562e-08
43 1 0.05 0.25 0.19383 -2.85004 3.9562e-08
47 1 0.0833333 0.15 0.127014 -2.8512 2.24186e-06
60 1 0.0833333 0.25 0.127014 -2.8512 2.24186e-06
147 1 0.1 0.2 0.19383 -2.85004 3.9562e-08
153 1 0.15 0.15 0.19383 -2.85004 3.9562e-08
172 1 0.15 0.25 0.19383 -2.85004 3.9562e-08
174 1 0.133333 0.2 0.127014 -2.8512 2.24186e-06
176 1 0.183333 0.15 0.127014 -2.8512 2.24186e-06
177 1 0.183333 0.25 0.127014 -2.8512 2.24186e-06
299 1 0.2 0.2 0.19383 -2.85004 3.9562e-08
300 1 0.233333 0.2 0.127014 -2.8512 2.24186e-06
301 1 0.25 0.15 0.19383 -2.85004 3.9562e-08
302 1 0.25 0.25 0.19383 -2.85004 3.9562e-08
306 1 0.283333 0.15 0.127014 -2.8512 2.24186e-06
329 1 0.283333 0.25 0.127014 -2.8512 2.24186e-06
427 1 0.3 0.2 0.19383 -2.85004 3.9562e-08
454 1 0.333333 0.2 0.127014 -2.8512 2.24186e-06
433 1 0.35 0.15 0.19383 -2.85004 3.9562e-08
452 1 0.35 0.25 0.19383 -2.85004 3.9562e-08
456 1 0.383333 0.15 0.127014 -2.8512 2.24186e-06
457 1 0.383333 0.25 0.127014 -2.8512 2.24186e-06
579 1 0.4 0.2 0.19383 -2.85004 3.9562e-08
580 1 0.433333 0.2 0.127014 -2.8512 2.24186e-06
581 1 0.45 0.15 0.19383 -2.85004 3.9562e-08
582 1 0.45 0.25 0.19383 -2.85004 3.9562e-08
586 1 0.483333 0.15 0.127014 -2.8512 2.24186e-06
609 1 0.483333 0.25 0.127014 -2.8512 2.24186e-06
707 1 0.5 0.2 0.19383 -2.85004 3.9562e-08
713 1 0.55 0.15 0.19383 -2.85004 3.9562e-08
732 1 0.55 0.25 0.19383 -2.85004 3.9562e-08
734 1 0.533333 0.2 0.127014 -2.8512 2.24186e-06
736 1 0.583333 0.15 0.127014 -2.8512 2.24186e-06
737 1 0.583333 0.25 0.127014 -2.8512 2.24186e-06
859 1 0.6 0.2 0.19383 -2.85004 3.9562e-08
860 1 0.633333 0.2 0.127014 -2.8512 2.24186e-06
861 1 0.65 0.15 0.19383 -2.85004 3.9562e-08
862 1 0.65 0.25 0.19383 -2.85004 3.9562e-08
866 1 0.683333 0.15 0.127014 -2.8512 2.24186e-06
889 1 0.683333 0.25 0.127014 -2.8512 2.24186e-06
987 1 0.7 0.2 0.19383 -2.85004 3.9562e-08
993 1 0.75 0.15 0.19383 -2.85004 3.9562e-08
1012 1 0.75 0.25 0.19383 -2.85004 3.9562e-08
1014 1 0.733333 0.2 0.127014 -2.8512 2.24186e-06
1016 1 0.783333 0.15 0.127014 -2.8512 2.24186e-06
1017 1 0.783333 0.25 0.127014 -2.8512 2.24186e-06
1139 1 0.8 0.2 0.19383 -2.85004 3.9562e-08
1140 1 0.833333 0.2 0.127014 -2.8512 2.24186e-06
1141 1 0.85 0.15 0.19383 -2.85004 3.9562e-08
1142 1 0.85 0.25 0.19383 -2.85004 3.9562e-08
1146 1 0.883333 0.15 0.127014 -2.8512 2.24186e-06
1169 1 0.883333 0.25 0.127014 -2.8512 2.24186e-06
1267 1 0.9 0.2 0.19383 -2.85004 3.9562e-08
1273 1 0.95 0.15 0.19383 -2.85004 3.9562e-08
1292 1 0.95 0.25 0.19383 -2.85004 3.9562e-08
1294 1 0.933333 0.2 0.127014 -2.8512 2.24186e-06
1296 1 0.983333 0.15 0.127014 -2.8512 2.24186e-06
1297 1 0.983333 0.25 0.127014 -2.8512 2.24186e-06
37 1 0 0.3 0.19383 -2.85004 3.9562e-08
54 1 8.86546e-18 0.4 0.19383 -2.85004 3.9562e-08
55 1 0.0333333 0.4 0.127014 -2.8512 2.24186e-06
56 1 0.05 0.35 0.19383 -2.85004 3.9562e-08
58 1 0.0333333 0.3 0.127014 -2.8512 2.24186e-06
61 1 0.0833333 0.35 0.127014 -2.8512 2.24186e-06
167 1 0.1 0.4 0.19383 -2.85004 3.9562e-08
170 1 0.1 0.3 0.19383 -2.85004 3.9562e-08
171 1 0.133333 0.3 0.127014 -2.8512 2.24186e-06
173 1 0.15 0.35 0.19383 -2.85004 3.9562e-08
201 1 0.133333 0.4 0.127014 -2.8512 2.24186e-06
203 1 0.183333 0.35 0.127014 -2.8512 2.24186e-06
296 1 0.2 0.3 0.19383 -2.85004 3.9562e-08
323 1 0.2 0.4 0.19383 -2.85004 3.9562e-08
324 1 0.233333 0.4 0.127014 -2.8512 2.24186e-06
325 1 0.25 0.35 0.19383 -2.85004 3.9562e-08
327 1 0.233333 0.3 0.127014 -2.8512 2.24186e-06
330 1 0.283333 0.35 0.127014 -2.8512 2.24186e-06
447 1 0.3 0.4 0.19383 -2.85004 3.9562e-08
450 1 0.3 0.3 0.19383 -2.85004 3.9562e-08
451 1 0.333333 0.3 0.127014 -2.8512 2.24186e-06
481 1 0.333333 0.4 0.127014 -2.8512 2.24186e-06
453 1 0.35 0.35 0.19383 -2.85004 3.9562e-08
483 1 0.383333 0.35 0.127014 -2.8512 2.24186e-06
576 1 0.4 0.3 0.19383 -2.85004 3.9562e-08
603 1 0.4 0.4 0.19383 -2.85004 3.9562e-08
604 1 0.433333 0.4 0.127014 -2.8512 2.24186e-06
605 1 0.45 0.35 0.19383 -2.85004 3.9562e-08
607 1 0.433333 0.3 0.127014 -2.8512 2.24186e-06
610 1 0.483333 0.35 0.127014 -2.8512 2.24186e-06
727 1 0.5 0.4 0.19383 -2.85004 3.9562e-08
730 1 0.5 0.3 0.19383 -2.85004 3.9562e-08
731 1 0.533333 0.3 0.127014 -2.8512 2.24186e-06
733 1 0.55 0.35 0.19383 -2.85004 3.9562e-08
761 1 0.533333 0.4 0.127014 -2.8512 2.24186e-06
763 1 0.583333 0.35 0.127014 -2.8512 2.24186e-06
856 1 0.6 0.3 0.19383 -2.85004 3.9562e-08
883 1 0.6 0.4 0.19383 -2.85004 3.9562e-08
884 1 0.633333 0.4 0.127014 -2.8512 2.24186e-06
885 1 0.65 0.35 0.19383 -2.85004 3.9562e-08
887 1 0.633333 0.3 0.127014 -2.8512 2.24186e-06
890 1 0.683333 0.35 0.127014 -2.8512 2.24186e-06
1007 1 0.7 0.4 0.19383 -2.85004 3.9562e-08
1010 1 0.7 0.3 0.19383 -2.85004 3.9562e-08
1011 1 0.733333 0.3 0.127014 -2.8512 2.24186e-06
1013 1 0.75 0.35 0.19383 -2.85004 3.9562e-08
1041 1 0.733333 0.4 0.127014 -2.8512 2.24186e-06
1043 1 0.783333 0.35 0.127014 -2.8512 2.24186e-06
1136 1 0.8 0.3 0.19383 -2.85004 3.9562e-08
1163 1 0.8 0.4 0.19383 -2.85004 3.9562e-08
1164 1 0.833333 0.4 0.127014 -2.8512 2.24186e-06
1167 1 0.833333 0.3 0.127014 -2.8512 2.24186e-06
1165 1 0.85 0.35 0.19383 -2.85004 3.9562e-08
1170 1 0.883333 0.35 0.127014 -2.8512 2.24186e-06
1287 1 0.9 0.4 0.19383 -2.85004 3.9562e-08
1290 1 0.9 0.3 0.19383 -2.85004 3.9562e-08
1291 1 0.933333 0.3 0.127014 -2.8512 2.24186e-06
1293 1 0.95 0.35 0.19383 -2.85004 3.9562e-08
1316 1 0.933333 0.4 0.127014 -2.8512 2.24186e-06
1318 1 0.983333 0.35 0.127014 -2.8512 2.24186e-06
51 1 0 0.5 0.19383 -2.85004 3.9562e-08
57 1 0.05 0.45 0.19383 -2.85004 3.9562e-08
74 1 0.05 0.55 0.19383 -2.85004 3.9562e-08
76 1 0.0333333 0.5 0.127014 -2.8512 2.24186e-06
78 1 0.0833333 0.45 0.127014 -2.8512 2.24186e-06
79 1 0.0833333 0.55 0.127014 -2.8512 2.24186e-06
197 1 0.1 0.5 0.19383 -2.85004 3.9562e-08
198 1 0.133333 0.5 0.127014 -2.8512 2.24186e-06
199 1 0.15 0.45 0.19383 -2.85004 3.9562e-08
200 1 0.15 0.55 0.19383 -2.85004 3.9562e-08
204 1 0.183333 0.45 0.127014 -2.8512 2.24186e-06
227 1 0.183333 0.55 0.127014 -2.8512 2.24186e-06
320 1 0.2 0.5 0.19383 -2.85004 3.9562e-08
326 1 0.25 0.45 0.19383 -2.85004 3.9562e-08
352 1 0.25 0.55 0.19383 -2.85004 3.9562e-08
354 1 0.233333 0.5 0.127014 -2.8512 2.24186e-06
356 1 0.283333 0.45 0.127014 -2.8512 2.24186e-06
357 1 0.283333 0.55 0.127014 -2.8512 2.24186e-06
477 1 0.3 0.5 0.19383 -2.85004 3.9562e-08
478 1 0.333333 0.5 0.127014 -2.8512 2.24186e-06
479 1 0.35 0.45 0.19383 -2.85004 3.9562e-08
480 1 0.35 0.55 0.19383 -2.85004 3.9562e-08
484 1 0.383333 0.45 0.127014 -2.8512 2.24186e-06
507 1 0.383333 0.55 0.127014 -2.8512 2.24186e-06
600 1 0.4 0.5 0.19383 -2.85004 3.9562e-08
606 1 0.45 0.45 0.19383 -2.85004 3.9562e-08
632 1 0.45 0.55 0.19383 -2.85004 3.9562e-08
634 1 0.433333 0.5 0.127014 -2.8512 2.24186e-06
636 1 0.483333 0.45 0.127014 -2.8512 2.24186e-06
637 1 0.483333 0.55 0.127014 -2.8512 2.24186e-06
757 1 0.5 0.5 0.19383 -2.85004 3.9562e-08
758 1 0.533333 0.5 0.127014 -2.8512 2.24186e-06
759 1 0.55 0.45 0.19383 -2.85004 3.9562e-08
760 1 0.55 0.55 0.19383 -2.85004 3.9562e-08
764 1 0.583333 0.45 0.127014 -2.8512 2.24186e-06
787 1 0.583333 0.55 0.127014 -2.8512 2.24186e-06
880 1 0.6 0.5 0.19383 -2.85004 3.9562e-08
886 1 0.65 0.45 0.19383 -2.85004 3.9562e-08
912 1 0.65 0.55 0.19383 -2.85004 3.9562e-08
914 1 0.633333 0.5 0.127014 -2.8512 2.24186e-06
916 1 0.683333 0.45 0.127014 -2.8512 2.24186e-06
917 1 0.683333 0.55 0.127014 -2.8512 2.24186e-06
1037 1 0.7 0.5 0.19383 -2.85004 3.9562e-08
1038 1 0.733333 0.5 0.127014 -2.8512 2.24186e-06
1039 1 0.75 0.45 0.19383 -2.85004 3.9562e-08
1040 1 0.75 0.55 0.19383 -2.85004 3.9562e-08
1044 1 0.783333 0.45 0.127014 -2.8512 2.24186e-06
1067 1 0.783333 0.55 0.127014 -2.8512 2.24186e-06
1160 1 0.8 0.5 0.19383 -2.85004 3.9562e-08
1194 1 0.833333 0.5 0.127014 -2.8512 2.24186e-06
1166 1 0.85 0.45 0.19383 -2.85004 3.9562e-08
1192 1 0.85 0.55 0.19383 -2.85004 3.9562e-08
1196 1 0.883333 0.45 0.127014 -2.8512 2.24186e-06
1197 1 0.883333 0.55 0.127014 -2.8512 2.24186e-06
1312 1 0.9 0.5 0.19383 -2.85004 3.9562e-08
1313 1 0.933333 0.5 0.127014 -2.8512 2.24186e-06
1314 1 0.95 0.45 0.19383 -2.85004 3.9562e-08
1315 1 0.95 0.55 0.19383 -2.85004 3.9562e-08
1319 1 0.983333 0.45 0.127014 -2.8512 2.24186e-06
1336 1 0.983333 0.55 0.127014 -2.8512 2.24186e-06
69 1 1.77309e-17 0.7 0.19383 -2.85004 3.9562e-08
72 1 0 0.6 0.19383 -2.85004 3.9562e-08
73 1 0.0333333 0.6 0.127014 -2.8512 2.24186e-06
75 1 0.05 0.65 0.19383 -2.85004 3.9562e-08
94 1 0.0333333 0.7 0.127014 -2.8512 2.24186e-06