ITEM: TIMESTEP
42
ITEM: NUMBER OF ATOMS
3200
ITEM: BOX BOUNDS pp pp ss
0.0000000000000000e+00 5.0092067021360698e+01
0.0000000000000000e+00 2.8920668379047399e+01
3.8451742731260487e-02 3.5381988531723906e+01
ITEM: ATOMS id type xs ys zs c_peratom c_csym
1 1 0 0.1 -0.00496184 -2.47657 24.5
2 1 0.0166667 0.05 0.0606567 -2.83202 0.0102878
4 1 0 0 -0.00496184 -2.47657 24.5
5 1 0.05 0.05 -0.00496184 -2.47657 24.5
45 1 0.0666667 0.1 0.0606567 -2.83202 0.0102878
48 1 0.0666667 0 0.0606567 -2.83202 0.0102878
49 1 0.1 0 -0.00496184 -2.47657 24.5
50 1 0.116667 0.05 0.0606567 -2.83202 0.0102878
66 1 0.1 0.1 -0.00496184 -2.47657 24.5
67 1 0.15 0.05 -0.00496184 -2.47657 24.5
155 1 0.166667 0 0.0606567 -2.83202 0.0102878
178 1 0.166667 0.1 0.0606567 -2.83202 0.0102878
179 1 0.2 0.1 -0.00496184 -2.47657 24.5
180 1 0.216667 0.05 0.0606567 -2.83202 0.0102878
182 1 0.2 0 -0.00496184 -2.47657 24.5
183 1 0.25 0.05 -0.00496184 -2.47657 24.5
304 1 0.266667 0.1 0.0606567 -2.83202 0.0102878
307 1 0.266667 0 0.0606567 -2.83202 0.0102878
308 1 0.3 0 -0.00496184 -2.47657 24.5
309 1 0.316667 0.05 0.0606567 -2.83202 0.0102878
335 1 0.3 0.1 -0.00496184 -2.47657 24.5
336 1 0.35 0.05 -0.00496184 -2.47657 24.5
435 1 0.366667 0 0.0606567 -2.83202 0.0102878
458 1 0.366667 0.1 0.0606567 -2.83202 0.0102878
459 1 0.4 0.1 -0.00496184 -2.47657 24.5
460 1 0.416667 0.05 0.0606567 -2.83202 0.0102878
462 1 0.4 0 -0.00496184 -2.47657 24.5
463 1 0.45 0.05 -0.00496184 -2.47657 24.5
584 1 0.466667 0.1 0.0606567 -2.83202 0.0102878
587 1 0.466667 0 0.0606567 -2.83202 0.0102878
588 1 0.5 0 -0.00496184 -2.47657 24.5
615 1 0.5 0.1 -0.00496184 -2.47657 24.5
589 1 0.516667 0.05 0.0606567 -2.83202 0.0102878
616 1 0.55 0.05 -0.00496184 -2.47657 24.5
715 1 0.566667 0 0.0606567 -2.83202 0.0102878
738 1 0.566667 0.1 0.0606567 -2.83202 0.0102878
739 1 0.6 0.1 -0.00496184 -2.47657 24.5
740 1 0.616667 0.05 0.0606567 -2.83202 0.0102878
742 1 0.6 0 -0.00496184 -2.47657 24.5
743 1 0.65 0.05 -0.00496184 -2.47657 24.5
864 1 0.666667 0.1 0.0606567 -2.83202 0.0102878
867 1 0.666667 0 0.0606567 -2.83202 0.0102878
868 1 0.7 0 -0.00496184 -2.47657 24.5
869 1 0.716667 0.05 0.0606567 -2.83202 0.0102878
895 1 0.7 0.1 -0.00496184 -2.47657 24.5
896 1 0.75 0.05 -0.00496184 -2.47657 24.5
995 1 0.766667 0 0.0606567 -2.83202 0.0102878
1018 1 0.766667 0.1 0.0606567 -2.83202 0.0102878
1019 1 0.8 0.1 -0.00496184 -2.47657 24.5
1020 1 0.816667 0.05 0.0606567 -2.83202 0.0102878
1022 1 0.8 0 -0.00496184 -2.47657 24.5
1023 1 0.85 0.05 -0.00496184 -2.47657 24.5
1144 1 0.866667 0.1 0.0606567 -2.83202 0.0102878
1147 1 0.866667 0 0.0606567 -2.83202 0.0102878
1148 1 0.9 0 -0.00496184 -2.47657 24.5
1149 1 0.916667 0.05 0.0606567 -2.83202 0.0102878
1175 1 0.9 0.1 -0.00496184 -2.47657 24.5
1176 1 0.95 0.05 -0.00496184 -2.47657 24.5
1275 1 0.966667 0 0.0606567 -2.83202 0.0102878
1298 1 0.966667 0.1 0.0606567 -2.83202 0.0102878
3 1 0.0166667 0.15 0.0606567 -2.83202 0.0102878
7 1 0.0166667 0.25 0.0606567 -2.83202 0.0102878
9 1 0 0.2 -0.00496184 -2.47657 24.5
10 1 0.05 0.15 -0.00496184 -2.47657 24.5
11 1 0.05 0.25 -0.00496184 -2.47657 24.5
62 1 0.0666667 0.2 0.0606567 -2.83202 0.0102878
63 1 0.1 0.2 -0.00496184 -2.47657 24.5
64 1 0.116667 0.15 0.0606567 -2.83202 0.0102878
65 1 0.116667 0.25 0.0606567 -2.83202 0.0102878
68 1 0.15 0.15 -0.00496184 -2.47657 24.5
85 1 0.15 0.25 -0.00496184 -2.47657 24.5
175 1 0.166667 0.2 0.0606567 -2.83202 0.0102878
181 1 0.216667 0.15 0.0606567 -2.83202 0.0102878
207 1 0.216667 0.25 0.0606567 -2.83202 0.0102878
209 1 0.2 0.2 -0.00496184 -2.47657 24.5
210 1 0.25 0.15 -0.00496184 -2.47657 24.5
211 1 0.25 0.25 -0.00496184 -2.47657 24.5
331 1 0.266667 0.2 0.0606567 -2.83202 0.0102878
332 1 0.3 0.2 -0.00496184 -2.47657 24.5
333 1 0.316667 0.15 0.0606567 -2.83202 0.0102878
334 1 0.316667 0.25 0.0606567 -2.83202 0.0102878
337 1 0.35 0.15 -0.00496184 -2.47657 24.5
363 1 0.35 0.25 -0.00496184 -2.47657 24.5
455 1 0.366667 0.2 0.0606567 -2.83202 0.0102878
461 1 0.416667 0.15 0.0606567 -2.83202 0.0102878
487 1 0.416667 0.25 0.0606567 -2.83202 0.0102878
489 1 0.4 0.2 -0.00496184 -2.47657 24.5
490 1 0.45 0.15 -0.00496184 -2.47657 24.5
491 1 0.45 0.25 -0.00496184 -2.47657 24.5
611 1 0.466667 0.2 0.0606567 -2.83202 0.0102878
612 1 0.5 0.2 -0.00496184 -2.47657 24.5
613 1 0.516667 0.15 0.0606567 -2.83202 0.0102878
614 1 0.516667 0.25 0.0606567 -2.83202 0.0102878
617 1 0.55 0.15 -0.00496184 -2.47657 24.5
643 1 0.55 0.25 -0.00496184 -2.47657 24.5
735 1 0.566667 0.2 0.0606567 -2.83202 0.0102878
741 1 0.616667 0.15 0.0606567 -2.83202 0.0102878
767 1 0.616667 0.25 0.0606567 -2.83202 0.0102878
769 1 0.6 0.2 -0.00496184 -2.47657 24.5
770 1 0.65 0.15 -0.00496184 -2.47657 24.5
771 1 0.65 0.25 -0.00496184 -2.47657 24.5
891 1 0.666667 0.2 0.0606567 -2.83202 0.0102878
892 1 0.7 0.2 -0.00496184 -2.47657 24.5
893 1 0.716667 0.15 0.0606567 -2.83202 0.0102878
894 1 0.716667 0.25 0.0606567 -2.83202 0.0102878
897 1 0.75 0.15 -0.00496184 -2.47657 24.5
923 1 0.75 0.25 -0.00496184 -2.47657 24.5
1015 1 0.766667 0.2 0.0606567 -2.83202 0.0102878
1021 1 0.816667 0.15 0.0606567 -2.83202 0.0102878
1047 1 0.816667 0.25 0.0606567 -2.83202 0.0102878
1049 1 0.8 0.2 -0.00496184 -2.47657 24.5
1050 1 0.85 0.15 -0.00496184 -2.47657 24.5
1051 1 0.85 0.25 -0.00496184 -2.47657 24.5
1171 1 0.866667 0.2 0.0606567 -2.83202 0.0102878
1172 1 0.9 0.2 -0.00496184 -2.47657 24.5
1173 1 0.916667 0.15 0.0606567 -2.83202 0.0102878
1174 1 0.916667 0.25 0.0606567 -2.83202 0.0102878
1177 1 0.95 0.15 -0.00496184 -2.47657 24.5
1203 1 0.95 0.25 -0.00496184 -2.47657 24.5
1295 1 0.966667 0.2 0.0606567 -2.83202 0.0102878
6 1 0 0.3 -0.00496184 -2.47657 24.5
8 1 0.0166667 0.35 0.0606567 -2.83202 0.0102878
15 1 0 0.4 -0.00496184 -2.47657 24.5
16 1 0.05 0.35 -0.00496184 -2.47657 24.5
59 1 0.0666667 0.3 0.0606567 -2.83202 0.0102878
80 1 0.0666667 0.4 0.0606567 -2.83202 0.0102878
81 1 0.1 0.4 -0.00496184 -2.47657 24.5
82 1 0.116667 0.35 0.0606567 -2.83202 0.0102878
84 1 0.1 0.3 -0.00496184 -2.47657 24.5
86 1 0.15 0.35 -0.00496184 -2.47657 24.5
202 1 0.166667 0.4 0.0606567 -2.83202 0.0102878
205 1 0.166667 0.3 0.0606567 -2.83202 0.0102878
206 1 0.2 0.3 -0.00496184 -2.47657 24.5
208 1 0.216667 0.35 0.0606567 -2.83202 0.0102878
233 1 0.2 0.4 -0.00496184 -2.47657 24.5
234 1 0.25 0.35 -0.00496184 -2.47657 24.5
328 1 0.266667 0.3 0.0606567 -2.83202 0.0102878
358 1 0.266667 0.4 0.0606567 -2.83202 0.0102878
359 1 0.3 0.4 -0.00496184 -2.47657 24.5
360 1 0.316667 0.35 0.0606567 -2.83202 0.0102878
362 1 0.3 0.3 -0.00496184 -2.47657 24.5
364 1 0.35 0.35 -0.00496184 -2.47657 24.5
482 1 0.366667 0.4 0.0606567 -2.83202 0.0102878
485 1 0.366667 0.3 0.0606567 -2.83202 0.0102878
486 1 0.4 0.3 -0.00496184 -2.47657 24.5
488 1 0.416667 0.35 0.0606567 -2.83202 0.0102878
513 1 0.4 0.4 -0.00496184 -2.47657 24.5
514 1 0.45 0.35 -0.00496184 -2.47657 24.5
608 1 0.466667 0.3 0.0606567 -2.83202 0.0102878
638 1 0.466667 0.4 0.0606567 -2.83202 0.0102878
639 1 0.5 0.4 -0.00496184 -2.47657 24.5
642 1 0.5 0.3 -0.00496184 -2.47657 24.5
640 1 0.516667 0.35 0.0606567 -2.83202 0.0102878
644 1 0.55 0.35 -0.00496184 -2.47657 24.5
762 1 0.566667 0.4 0.0606567 -2.83202 0.0102878
765 1 0.566667 0.3 0.0606567 -2.83202 0.0102878
766 1 0.6 0.3 -0.00496184 -2.47657 24.5
768 1 0.616667 0.35 0.0606567 -2.83202 0.0102878
793 1 0.6 0.4 -0.00496184 -2.47657 24.5
794 1 0.65 0.35 -0.00496184 -2.47657 24.5
888 1 0.666667 0.3 0.0606567 -2.83202 0.0102878
918 1 0.666667 0.4 0.0606567 -2.83202 0.0102878
919 1 0.7 0.4 -0.00496184 -2.47657 24.5
920 1 0.716667 0.35 0.0606567 -2.83202 0.0102878
922 1 0.7 0.3 -0.00496184 -2.47657 24.5
924 1 0.75 0.35 -0.00496184 -2.47657 24.5
1042 1 0.766667 0.4 0.0606567 -2.83202 0.0102878
1045 1 0.766667 0.3 0.0606567 -2.83202 0.0102878
1046 1 0.8 0.3 -0.00496184 -2.47657 24.5
1048 1 0.816667 0.35 0.0606567 -2.83202 0.0102878
1073 1 0.8 0.4 -0.00496184 -2.47657 24.5
1074 1 0.85 0.35 -0.00496184 -2.47657 24.5
1168 1 0.866667 0.3 0.0606567 -2.83202 0.0102878
1198 1 0.866667 0.4 0.0606567 -2.83202 0.0102878
1199 1 0.9 0.4 -0.00496184 -2.47657 24.5
1200 1 0.916667 0.35 0.0606567 -2.83202 0.0102878
1202 1 0.9 0.3 -0.00496184 -2.47657 24.5
1204 1 0.95 0.35 -0.00496184 -2.47657 24.5
1317 1 0.966667 0.4 0.0606567 -2.83202 0.0102878
1320 1 0.966667 0.3 0.0606567 -2.83202 0.0102878
12 1 0 0.5 -0.00496184 -2.47657 24.5
13 1 0.0166667 0.45 0.0606567 -2.83202 0.0102878
14 1 0.0166667 0.55 0.0606567 -2.83202 0.0102878
17 1 0.05 0.45 -0.00496184 -2.47657 24.5
22 1 0.05 0.55 -0.00496184 -2.47657 24.5
77 1 0.0666667 0.5 0.0606567 -2.83202 0.0102878
83 1 0.116667 0.45 0.0606567 -2.83202 0.0102878
100 1 0.116667 0.55 0.0606567 -2.83202 0.0102878
102 1 0.1 0.5 -0.00496184 -2.47657 24.5
103 1 0.15 0.45 -0.00496184 -2.47657 24.5
104 1 0.15 0.55 -0.00496184 -2.47657 24.5
229 1 0.166667 0.5 0.0606567 -2.83202 0.0102878
230 1 0.2 0.5 -0.00496184 -2.47657 24.5
231 1 0.216667 0.45 0.0606567 -2.83202 0.0102878
232 1 0.216667 0.55 0.0606567 -2.83202 0.0102878
235 1 0.25 0.45 -0.00496184 -2.47657 24.5
250 1 0.25 0.55 -0.00496184 -2.47657 24.5
355 1 0.266667 0.5 0.0606567 -2.83202 0.0102878
361 1 0.316667 0.45 0.0606567 -2.83202 0.0102878
380 1 0.316667 0.55 0.0606567 -2.83202 0.0102878
382 1 0.3 0.5 -0.00496184 -2.47657 24.5
383 1 0.35 0.45 -0.00496184 -2.47657 24.5
384 1 0.35 0.55 -0.00496184 -2.47657 24.5
509 1 0.366667 0.5 0.0606567 -2.83202 0.0102878
510 1 0.4 0.5 -0.00496184 -2.47657 24.5
511 1 0.416667 0.45 0.0606567 -2.83202 0.0102878
512 1 0.416667 0.55 0.0606567 -2.83202 0.0102878
515 1 0.45 0.45 -0.00496184 -2.47657 24.5
530 1 0.45 0.55 -0.00496184 -2.47657 24.5
635 1 0.466667 0.5 0.0606567 -2.83202 0.0102878
662 1 0.5 0.5 -0.00496184 -2.47657 24.5
641 1 0.516667 0.45 0.0606567 -2.83202 0.0102878
660 1 0.516667 0.55 0.0606567 -2.83202 0.0102878
663 1 0.55 0.45 -0.00496184 -2.47657 24.5
664 1 0.55 0.55 -0.00496184 -2.47657 24.5
789 1 0.566667 0.5 0.0606567 -2.83202 0.0102878
790 1 0.6 0.5 -0.00496184 -2.47657 24.5
791 1 0.616667 0.45 0.0606567 -2.83202 0.0102878
792 1 0.616667 0.55 0.0606567 -2.83202 0.0102878
795 1 0.65 0.45 -0.00496184 -2.47657 24.5
810 1 0.65 0.55 -0.00496184 -2.47657 24.5
915 1 0.666667 0.5 0.0606567 -2.83202 0.0102878
921 1 0.716667 0.45 0.0606567 -2.83202 0.0102878
940 1 0.716667 0.55 0.0606567 -2.83202 0.0102878
942 1 0.7 0.5 -0.00496184 -2.47657 24.5
943 1 0.75 0.45 -0.00496184 -2.47657 24.5
944 1 0.75 0.55 -0.00496184 -2.47657 24.5
1069 1 0.766667 0.5 0.0606567 -2.83202 0.0102878
1070 1 0.8 0.5 -0.00496184 -2.47657 24.5
1071 1 0.816667 0.45 0.0606567 -2.83202 0.0102878
1072 1 0.816667 0.55 0.0606567 -2.83202 0.0102878
1075 1 0.85 0.45 -0.00496184 -2.47657 24.5
1090 1 0.85 0.55 -0.00496184 -2.47657 24.5
1195 1 0.866667 0.5 0.0606567 -2.83202 0.0102878
1201 1 0.916667 0.45 0.0606567 -2.83202 0.0102878
1220 1 0.916667 0.55 0.0606567 -2.83202 0.0102878
1222 1 0.9 0.5 -0.00496184 -2.47657 24.5
1223 1 0.95 0.45 -0.00496184 -2.47657 24.5
1224 1 0.95 0.55 -0.00496184 -2.47657 24.5
1338 1 0.966667 0.5 0.0606567 -2.83202 0.0102878
18 1 0 0.7 -0.00496184 -2.47657 24.5
19 1 0.0166667 0.65 0.0606567 -2.83202 0.0102878
21 1 0 0.6 -0.00496184 -2.47657 24.5
23 1 0.05 0.65 -0.00496184 -2.47657 24.5
95 1 0.0666667 0.7 0.0606567 -2.83202 0.0102878
98 1 0.0666667 0.6 0.0606567 -2.83202 0.0102878
99 1 0.1 0.6 -0.00496184 -2.47657 24.5
101 1 0.116667 0.65 0.0606567 -2.83202 0.0102878
114 1 0.1 0.7 -0.00496184 -2.47657 24.5
115 1 0.15 0.65 -0.00496184 -2.47657 24.5
226 1 0.166667 0.6 0.0606567 -2.83202 0.0102878
245 1 0.166667 0.7 0.0606567 -2.83202 0.0102878
246 1 0.2 0.7 -0.00496184 -2.47657 24.5
247 1 0.216667 0.65 0.0606567 -2.83202 0.0102878
249 1 0.2 0.6 -0.00496184 -2.47657 24.5
251 1 0.25 0.65 -0.00496184 -2.47657 24.5
375 1 0.266667 0.7 0.0606567 -2.83202 0.0102878
378 1 0.266667 0.6 0.0606567 -2.83202 0.0102878
379 1 0.3 0.6 -0.00496184 -2.47657 24.5
381 1 0.316667 0.65 0.0606567 -2.83202 0.0102878
394 1 0.3 0.7 -0.00496184 -2.47657 24.5
395 1 0.35 0.65 -0.00496184 -2.47657 24.5
506 1 0.366667 0.6 0.0606567 -2.83202 0.0102878
525 1 0.366667 0.7 0.0606567 -2.83202 0.0102878
526 1 0.4 0.7 -0.00496184 -2.47657 24.5
527 1 0.416667 0.65 0.0606567 -2.83202 0.0102878
529 1 0.4 0.6 -0.00496184 -2.47657 24.5
531 1 0.45 0.65 -0.00496184 -2.47657 24.5
655 1 0.466667 0.7 0.0606567 -2.83202 0.0102878
658 1 0.466667 0.6 0.0606567 -2.83202 0.0102878
659 1 0.5 0.6 -0.00496184 -2.47657 24.5
674 1 0.5 0.7 -0.00496184 -2.47657 24.5
661 1 0.516667 0.65 0.0606567 -2.83202 0.0102878
675 1 0.55 0.65 -0.00496184 -2.47657 24.5
786 1 0.566667 0.6 0.0606567 -2.83202 0.0102878
805 1 0.566667 0.7 0.0606567 -2.83202 0.0102878
806 1 0.6 0.7 -0.00496184 -2.47657 24.5
807 1 0.616667 0.65 0.0606567 -2.83202 0.0102878
809 1 0.6 0.6 -0.00496184 -2.47657 24.5
811 1 0.65 0.65 -0.00496184 -2.47657 24.5
935 1 0.666667 0.7 0.0606567 -2.83202 0.0102878
938 1 0.666667 0.6 0.0606567 -2.83202 0.0102878
939 1 0.7 0.6 -0.00496184 -2.47657 24.5
941 1 0.716667 0.65 0.0606567 -2.83202 0.0102878
954 1 0.7 0.7 -0.00496184 -2.47657 24.5
955 1 0.75 0.65 -0.00496184 -2.47657 24.5
1066 1 0.766667 0.6 0.0606567 -2.83202 0.0102878
1085 1 0.766667 0.7 0.0606567 -2.83202 0.0102878
1086 1 0.8 0.7 -0.00496184 -2.47657 24.5
1087 1 0.816667 0.65 0.0606567 -2.83202 0.0102878
1089 1 0.8 0.6 -0.00496184 -2.47657 24.5
1091 1 0.85 0.65 -0.00496184 -2.47657 24.5
1215 1 0.866667 0.7 0.0606567 -2.83202 0.0102878
1218 1 0.866667 0.6 0.0606567 -2.83202 0.0102878
1219 1 0.9 0.6 -0.00496184 -2.47657 24.5
1221 1 0.916667 0.65 0.0606567 -2.83202 0.0102878
1234 1 0.9 0.7 -0.00496184 -2.47657 24.5
1235 1 0.95 0.65 -0.00496184 -2.47657 24.5
1335 1 0.966667 0.6 0.0606567 -2.83202 0.0102878
1348 1 0.966667 0.7 0.0606567 -2.83202 0.0102878
20 1 0.0166667 0.75 0.0606567 -2.83202 0.0102878
25 1 0.0166667 0.85 0.0606567 -2.83202 0.0102878
27 1 0 0.8 -0.00496184 -2.47657 24.5
28 1 0.05 0.75 -0.00496184 -2.47657 24.5
29 1 0.05 0.85 -0.00496184 -2.47657 24.5
110 1 0.0666667 0.8 0.0606567 -2.83202 0.0102878
111 1 0.1 0.8 -0.00496184 -2.47657 24.5
112 1 0.116667 0.75 0.0606567 -2.83202 0.0102878
113 1 0.116667 0.85 0.0606567 -2.83202 0.0102878
116 1 0.15 0.75 -0.00496184 -2.47657 24.5
119 1 0.15 0.85 -0.00496184 -2.47657 24.5
242 1 0.166667 0.8 0.0606567 -2.83202 0.0102878
248 1 0.216667 0.75 0.0606567 -2.83202 0.0102878
255 1 0.216667 0.85 0.0606567 -2.83202 0.0102878
257 1 0.2 0.8 -0.00496184 -2.47657 24.5
258 1 0.25 0.75 -0.00496184 -2.47657 24.5
259 1 0.25 0.85 -0.00496184 -2.47657 24.5
390 1 0.266667 0.8 0.0606567 -2.83202 0.0102878
391 1 0.3 0.8 -0.00496184 -2.47657 24.5
392 1 0.316667 0.75 0.0606567 -2.83202 0.0102878
393 1 0.316667 0.85 0.0606567 -2.83202 0.0102878
396 1 0.35 0.75 -0.00496184 -2.47657 24.5
399 1 0.35 0.85 -0.00496184 -2.47657 24.5
522 1 0.366667 0.8 0.0606567 -2.83202 0.0102878
528 1 0.416667 0.75 0.0606567 -2.83202 0.0102878
535 1 0.416667 0.85 0.0606567 -2.83202 0.0102878
537 1 0.4 0.8 -0.00496184 -2.47657 24.5
538 1 0.45 0.75 -0.00496184 -2.47657 24.5
539 1 0.45 0.85 -0.00496184 -2.47657 24.5
670 1 0.466667 0.8 0.0606567 -2.83202 0.0102878
671 1 0.5 0.8 -0.00496184 -2.47657 24.5
672 1 0.516667 0.75 0.0606567 -2.83202 0.0102878
673 1 0.516667 0.85 0.0606567 -2.83202 0.0102878
676 1 0.55 0.75 -0.00496184 -2.47657 24.5
679 1 0.55 0.85 -0.00496184 -2.47657 24.5
802 1 0.566667 0.8 0.0606567 -2.83202 0.0102878
808 1 0.616667 0.75 0.0606567 -2.83202 0.0102878
815 1 0.616667 0.85 0.0606567 -2.83202 0.0102878
817 1 0.6 0.8 -0.00496184 -2.47657 24.5
818 1 0.65 0.75 -0.00496184 -2.47657 24.5
819 1 0.65 0.85 -0.00496184 -2.47657 24.5
950 1 0.666667 0.8 0.0606567 -2.83202 0.0102878
951 1 0.7 0.8 -0.00496184 -2.47657 24.5
952 1 0.716667 0.75 0.0606567 -2.83202 0.0102878
953 1 0.716667 0.85 0.0606567 -2.83202 0.0102878
956 1 0.75 0.75 -0.00496184 -2.47657 24.5
959 1 0.75 0.85 -0.00496184 -2.47657 24.5
1082 1 0.766667 0.8 0.0606567 -2.83202 0.0102878
1088 1 0.816667 0.75 0.0606567 -2.83202 0.0102878
1095 1 0.816667 0.85 0.0606567 -2.83202 0.0102878
1097 1 0.8 0.8 -0.00496184 -2.47657 24.5
1098 1 0.85 0.75 -0.00496184 -2.47657 24.5
1099 1 0.85 0.85 -0.00496184 -2.47657 24.5
1230 1 0.866667 0.8 0.0606567 -2.83202 0.0102878
1231 1 0.9 0.8 -0.00496184 -2.47657 24.5
1232 1 0.916667 0.75 0.0606567 -2.83202 0.0102878
1233 1 0.916667 0.85 0.0606567 -2.83202 0.0102878
1236 1 0.95 0.75 -0.00496184 -2.47657 24.5
1239 1 0.95 0.85 -0.00496184 -2.47657 24.5
1345 1 0.966667 0.8 0.0606567 -2.83202 0.0102878
24 1 0 0.9 -0.00496184 -2.47657 24.5
26 1 0.0166667 0.95 0.0606567 -2.83202 0.0102878
30 1 0.05 0.95 -0.00496184 -2.47657 24.5
107 1 0.0666667 0.9 0.0606567 -2.83202 0.0102878
117 1 0.116667 0.95 0.0606567 -2.83202 0.0102878
118 1 0.1 0.9 -0.00496184 -2.47657 24.5
120 1 0.15 0.95 -0.00496184 -2.47657 24.5
253 1 0.166667 0.9 0.0606567 -2.83202 0.0102878
254 1 0.2 0.9 -0.00496184 -2.47657 24.5
256 1 0.216667 0.95 0.0606567 -2.83202 0.0102878
260 1 0.25 0.95 -0.00496184 -2.47657 24.5
387 1 0.266667 0.9 0.0606567 -2.83202 0.0102878
397 1 0.316667 0.95 0.0606567 -2.83202 0.0102878
398 1 0.3 0.9 -0.00496184 -2.47657 24.5
400 1 0.35 0.95 -0.00496184 -2.47657 24.5
533 1 0.366667 0.9 0.0606567 -2.83202 0.0102878
534 1 0.4 0.9 -0.00496184 -2.47657 24.5
536 1 0.416667 0.95 0.0606567 -2.83202 0.0102878
540 1 0.45 0.95 -0.00496184 -2.47657 24.5
667 1 0.466667 0.9 0.0606567 -2.83202 0.0102878
678 1 0.5 0.9 -0.00496184 -2.47657 24.5
677 1 0.516667 0.95 0.0606567 -2.83202 0.0102878
680 1 0.55 0.95 -0.00496184 -2.47657 24.5
813 1 0.566667 0.9 0.0606567 -2.83202 0.0102878
814 1 0.6 0.9 -0.00496184 -2.47657 24.5
816 1 0.616667 0.95 0.0606567 -2.83202 0.0102878
820 1 0.65 0.95 -0.00496184 -2.47657 24.5
947 1 0.666667 0.9 0.0606567 -2.83202 0.0102878
957 1 0.716667 0.95 0.0606567 -2.83202 0.0102878
958 1 0.7 0.9 -0.00496184 -2.47657 24.5
960 1 0.75 0.95 -0.00496184 -2.47657 24.5
1093 1 0.766667 0.9 0.0606567 -2.83202 0.0102878
1094 1 0.8 0.9 -0.00496184 -2.47657 24.5
1096 1 0.816667 0.95 0.0606567 -2.83202 0.0102878
1100 1 0.85 0.95 -0.00496184 -2.47657 24.5
1227 1 0.866667 0.9 0.0606567 -2.83202 0.0102878
1237 1 0.916667 0.95 0.0606567 -2.83202 0.0102878
1238 1 0.9 0.9 -0.00496184 -2.47657 24.5
1240 1 0.95 0.95 -0.00496184 -2.47657 24.5
1350 1 0.966667 0.9 0.0606567 -2.83202 0.0102878
31 1 0 0.1 0.194923 -2.84985 0.00023197
34 1 0 0 0.194923 -2.84985 0.00023197
35 1 0.0333333 0 0.127932 -2.85167 0.000302638
36 1 0.05 0.05 0.194923 -2.84985 0.00023197
44 1 0.0333333 0.1 0.127932 -2.85167 0.000302638
46 1 0.0833333 0.05 0.127932 -2.85167 0.000302638
135 1 0.1 0 0.194923 -2.84985 0.00023197
150 1 0.1 0.1 0.194923 -2.84985 0.00023197
151 1 0.133333 0.1 0.127932 -2.85167 0.000302638
152 1 0.15 0.05 0.194923 -2.84985 0.00023197
154 1 0.133333 0 0.127932 -2.85167 0.000302638
156 1 0.183333 0.05 0.127932 -2.85167 0.000302638
280 1 0.2 0.1 0.194923 -2.84985 0.00023197
283 1 0.2 0 0.194923 -2.84985 0.00023197
284 1 0.233333 0 0.127932 -2.85167 0.000302638
285 1 0.25 0.05 0.194923 -2.84985 0.00023197
303 1 0.233333 0.1 0.127932 -2.85167 0.000302638
305 1 0.283333 0.05 0.127932 -2.85167 0.000302638
415 1 0.3 0 0.194923 -2.84985 0.00023197
430 1 0.3 0.1 0.194923 -2.84985 0.00023197
431 1 0.333333 0.1 0.127932 -2.85167 0.000302638
434 1 0.333333 0 0.127932 -2.85167 0.000302638
432 1 0.35 0.05 0.194923 -2.84985 0.00023197
436 1 0.383333 0.05 0.127932 -2.85167 0.000302638
560 1 0.4 0.1 0.194923 -2.84985 0.00023197
563 1 0.4 0 0.194923 -2.84985 0.00023197
564 1 0.433333 0 0.127932 -2.85167 0.000302638
565 1 0.45 0.05 0.194923 -2.84985 0.00023197
583 1 0.433333 0.1 0.127932 -2.85167 0.000302638
585 1 0.483333 0.05 0.127932 -2.85167 0.000302638
695 1 0.5 0 0.194923 -2.84985 0.00023197
710 1 0.5 0.1 0.194923 -2.84985 0.00023197
711 1 0.533333 0.1 0.127932 -2.85167 0.000302638
712 1 0.55 0.05 0.194923 -2.84985 0.00023197
714 1 0.533333 0 0.127932 -2.85167 0.000302638
716 1 0.583333 0.05 0.127932 -2.85167 0.000302638
840 1 0.6 0.1 0.194923 -2.84985 0.00023197
843 1 0.6 0 0.194923 -2.84985 0.00023197
844 1 0.633333 0 0.127932 -2.85167 0.000302638
845 1 0.65 0.05 0.194923 -2.84985 0.00023197
863 1 0.633333 0.1 0.127932 -2.85167 0.000302638
865 1 0.683333 0.05 0.127932 -2.85167 0.000302638
975 1 0.7 0 0.194923 -2.84985 0.00023197
990 1 0.7 0.1 0.194923 -2.84985 0.00023197
991 1 0.733333 0.1 0.127932 -2.85167 0.000302638
992 1 0.75 0.05 0.194923 -2.84985 0.00023197
994 1 0.733333 0 0.127932 -2.85167 0.000302638
996 1 0.783333 0.05 0.127932 -2.85167 0.000302638
1120 1 0.8 0.1 0.194923 -2.84985 0.00023197
1123 1 0.8 0 0.194923 -2.84985 0.00023197
1124 1 0.833333 0 0.127932 -2.85167 0.000302638
1143 1 0.833333 0.1 0.127932 -2.85167 0.000302638
1125 1 0.85 0.05 0.194923 -2.84985 0.00023197
1145 1 0.883333 0.05 0.127932 -2.85167 0.000302638
1255 1 0.9 0 0.194923 -2.84985 0.00023197
1270 1 0.9 0.1 0.194923 -2.84985 0.00023197
1271 1 0.933333 0.1 0.127932 -2.85167 0.000302638
1272 1 0.95 0.05 0.194923 -2.84985 0.00023197
1274 1 0.933333 0 0.127932 -2.85167 0.000302638
1276 1 0.983333 0.05 0.127932 -2.85167 0.000302638
40 1 0 0.2 0.194923 -2.84985 0.00023197
41 1 0.0333333 0.2 0.127932 -2.85167 0.000302638
42 1 0.05 0.15 0.194923 -2.84985 0.00023197
43 1 0.05 0.25 0.194923 -2.84985 0.00023197
47 1 0.0833333 0.15 0.127932 -2.85167 0.000302638
60 1 0.0833333 0.25 0.127932 -2.85167 0.000302638
147 1 0.1 0.2 0.194923 -2.84985 0.00023197
153 1 0.15 0.15 0.194923 -2.84985 0.00023197
172 1 0.15 0.25 0.194923 -2.84985 0.00023197
174 1 0.133333 0.2 0.127932 -2.85167 0.000302638
176 1 0.183333 0.15 0.127932 -2.85167 0.000302638
177 1 0.183333 0.25 0.127932 -2.85167 0.000302638
299 1 0.2 0.2 0.194923 -2.84985 0.00023197
300 1 0.233333 0.2 0.127932 -2.85167 0.000302638
301 1 0.25 0.15 0.194923 -2.84985 0.00023197
302 1 0.25 0.25 0.194923 -2.84985 0.00023197
306 1 0.283333 0.15 0.127932 -2.85167 0.000302638
329 1 0.283333 0.25 0.127932 -2.85167 0.000302638
427 1 0.3 0.2 0.194923 -2.84985 0.00023197
454 1 0.333333 0.2 0.127932 -2.85167 0.000302638
433 1 0.35 0.15 0.194923 -2.84985 0.00023197
452 1 0.35 0.25 0.194923 -2.84985 0.00023197
456 1 0.383333 0.15 0.127932 -2.85167 0.000302638
457 1 0.383333 0.25 0.127932 -2.85167 0.000302638
579 1 0.4 0.2 0.194923 -2.84985 0.00023197
580 1 0.433333 0.2 0.127932 -2.85167 0.000302638
581 1 0.45 0.15 0.194923 -2.84985 0.00023197
582 1 0.45 0.25 0.194923 -2.84985 0.00023197
586 1 0.483333 0.15 0.127932 -2.85167 0.000302638
609 1 0.483333 0.25 0.127932 -2.85167 0.000302638
707 1 0.5 0.2 0.194923 -2.84985 0.00023197
713 1 0.55 0.15 0.194923 -2.84985 0.00023197
732 1 0.55 0.25 0.194923 -2.84985 0.00023197
734 1 0.533333 0.2 0.127932 -2.85167 0.000302638
736 1 0.583333 0.15 0.127932 -2.85167 0.000302638
737 1 0.583333 0.25 0.127932 -2.85167 0.000302638
859 1 0.6 0.2 0.194923 -2.84985 0.00023197
860 1 0.633333 0.2 0.127932 -2.85167 0.000302638
861 1 0.65 0.15 0.194923 -2.84985 0.00023197
862 1 0.65 0.25 0.194923 -2.84985 0.00023197
866 1 0.683333 0.15 0.127932 -2.85167 0.000302638
889 1 0.683333 0.25 0.127932 -2.85167 0.000302638
987 1 0.7 0.2 0.194923 -2.84985 0.00023197
993 1 0.75 0.15 0.194923 -2.84985 0.00023197
1012 1 0.75 0.25 0.194923 -2.84985 0.00023197
1014 1 0.733333 0.2 0.127932 -2.85167 0.000302638
1016 1 0.783333 0.15 0.127932 -2.85167 0.000302638
1017 1 0.783333 0.25 0.127932 -2.85167 0.000302638
1139 1 0.8 0.2 0.194923 -2.84985 0.00023197
1140 1 0.833333 0.2 0.127932 -2.85167 0.000302638
1141 1 0.85 0.15 0.194923 -2.84985 0.00023197
1142 1 0.85 0.25 0.194923 -2.84985 0.00023197
1146 1 0.883333 0.15 0.127932 -2.85167 0.000302638
1169 1 0.883333 0.25 0.127932 -2.85167 0.000302638
1267 1 0.9 0.2 0.194923 -2.84985 0.00023197
1273 1 0.95 0.15 0.194923 -2.84985 0.00023197
1292 1 0.95 0.25 0.194923 -2.84985 0.00023197
1294 1 0.933333 0.2 0.127932 -2.85167 0.000302638
1296 1 0.983333 0.15 0.127932 -2.85167 0.000302638
1297 1 0.983333 0.25 0.127932 -2.85167 0.000302638
37 1 0 0.3 0.194923 -2.84985 0.00023197
54 1 8.86546e-18 0.4 0.194923 -2.84985 0.00023197
55 1 0.0333333 0.4 0.127932 -2.85167 0.000302638
56 1 0.05 0.35 0.194923 -2.84985 0.00023197
58 1 0.0333333 0.3 0.127932 -2.85167 0.000302638
61 1 0.0833333 0.35 0.127932 -2.85167 0.000302638
167 1 0.1 0.4 0.194923 -2.84985 0.00023197
170 1 0.1 0.3 0.194923 -2.84985 0.00023197
171 1 0.133333 0.3 0.127932 -2.85167 0.000302638
173 1 0.15 0.35 0.194923 -2.84985 0.00023197
201 1 0.133333 0.4 0.127932 -2.85167 0.000302638
203 1 0.183333 0.35 0.127932 -2.85167 0.000302638
296 1 0.2 0.3 0.194923 -2.84985 0.00023197
323 1 0.2 0.4 0.194923 -2.84985 0.00023197
324 1 0.233333 0.4 0.127932 -2.85167 0.000302638
325 1 0.25 0.35 0.194923 -2.84985 0.00023197
327 1 0.233333 0.3 0.127932 -2.85167 0.000302638
330 1 0.283333 0.35 0.127932 -2.85167 0.000302638
447 1 0.3 0.4 0.194923 -2.84985 0.00023197
450 1 0.3 0.3 0.194923 -2.84985 0.00023197
451 1 0.333333 0.3 0.127932 -2.85167 0.000302638
481 1 0.333333 0.4 0.127932 -2.85167 0.000302638
453 1 0.35 0.35 0.194923 -2.84985 0.00023197
483 1 0.383333 0.35 0.127932 -2.85167 0.000302638
576 1 0.4 0.3 0.194923 -2.84985 0.00023197
603 1 0.4 0.4 0.194923 -2.84985 0.00023197
604 1 0.433333 0.4 0.127932 -2.85167 0.000302638
605 1 0.45 0.35 0.194923 -2.84985 0.00023197
607 1 0.433333 0.3 0.127932 -2.85167 0.000302638
610 1 0.483333 0.35 0.127932 -2.85167 0.000302638
727 1 0.5 0.4 0.194923 -2.84985 0.00023197
730 1 0.5 0.3 0.194923 -2.84985 0.00023197
731 1 0.533333 0.3 0.127932 -2.85167 0.000302638
733 1 0.55 0.35 0.194923 -2.84985 0.00023197
761 1 0.533333 0.4 0.127932 -2.85167 0.000302638
763 1 0.583333 0.35 0.127932 -2.85167 0.000302638
856 1 0.6 0.3 0.194923 -2.84985 0.00023197
883 1 0.6 0.4 0.194923 -2.84985 0.00023197
884 1 0.633333 0.4 0.127932 -2.85167 0.000302638
885 1 0.65 0.35 0.194923 -2.84985 0.00023197
887 1 0.633333 0.3 0.127932 -2.85167 0.000302638
890 1 0.683333 0.35 0.127932 -2.85167 0.000302638
1007 1 0.7 0.4 0.194923 -2.84985 0.00023197
1010 1 0.7 0.3 0.194923 -2.84985 0.00023197
1011 1 0.733333 0.3 0.127932 -2.85167 0.000302638
1013 1 0.75 0.35 0.194923 -2.84985 0.00023197
1041 1 0.733333 0.4 0.127932 -2.85167 0.000302638
1043 1 0.783333 0.35 0.127932 -2.85167 0.000302638
1136 1 0.8 0.3 0.194923 -2.84985 0.00023197
1163 1 0.8 0.4 0.194923 -2.84985 0.00023197
1164 1 0.833333 0.4 0.127932 -2.85167 0.000302638
1167 1 0.833333 0.3 0.127932 -2.85167 0.000302638
1165 1 0.85 0.35 0.194923 -2.84985 0.00023197
1170 1 0.883333 0.35 0.127932 -2.85167 0.000302638
1287 1 0.9 0.4 0.194923 -2.84985 0.00023197
1290 1 0.9 0.3 0.194923 -2.84985 0.00023197
1291 1 0.933333 0.3 0.127932 -2.85167 0.000302638
1293 1 0.95 0.35 0.194923 -2.84985 0.00023197
1316 1 0.933333 0.4 0.127932 -2.85167 0.000302638
1318 1 0.983333 0.35 0.127932 -2.85167 0.000302638
51 1 0 0.5 0.194923 -2.84985 0.00023197
57 1 0.05 0.45 0.194923 -2.84985 0.00023197
74 1 0.05 0.55 0.194923 -2.84985 0.00023197
76 1 0.0333333 0.5 0.127932 -2.85167 0.000302638
78 1 0.0833333 0.45 0.127932 -2.85167 0.000302638
79 1 0.0833333 0.55 0.127932 -2.85167 0.000302638
197 1 0.1 0.5 0.194923 -2.84985 0.00023197
198 1 0.133333 0.5 0.127932 -2.85167 0.000302638
199 1 0.15 0.45 0.194923 -2.84985 0.00023197
200 1 0.15 0.55 0.194923 -2.84985 0.00023197
204 1 0.183333 0.45 0.127932 -2.85167 0.000302638
227 1 0.183333 0.55 0.127932 -2.85167 0.000302638
320 1 0.2 0.5 0.194923 -2.84985 0.00023197
326 1 0.25 0.45 0.194923 -2.84985 0.00023197
352 1 0.25 0.55 0.194923 -2.84985 0.00023197
354 1 0.233333 0.5 0.127932 -2.85167 0.000302638
356 1 0.283333 0.45 0.127932 -2.85167 0.000302638
357 1 0.283333 0.55 0.127932 -2.85167 0.000302638
477 1 0.3 0.5 0.194923 -2.84985 0.00023197
478 1 0.333333 0.5 0.127932 -2.85167 0.000302638
479 1 0.35 0.45 0.194923 -2.84985 0.00023197
480 1 0.35 0.55 0.194923 -2.84985 0.00023197
484 1 0.383333 0.45 0.127932 -2.85167 0.000302638
507 1 0.383333 0.55 0.127932 -2.85167 0.000302638
600 1 0.4 0.5 0.194923 -2.84985 0.00023197
606 1 0.45 0.45 0.194923 -2.84985 0.00023197
632 1 0.45 0.55 0.194923 -2.84985 0.00023197
634 1 0.433333 0.5 0.127932 -2.85167 0.000302638
636 1 0.483333 0.45 0.127932 -2.85167 0.000302638
637 1 0.483333 0.55 0.127932 -2.85167 0.000302638
757 1 0.5 0.5 0.194923 -2.84985 0.00023197
758 1 0.533333 0.5 0.127932 -2.85167 0.000302638
759 1 0.55 0.45 0.194923 -2.84985 0.00023197
760 1 0.55 0.55 0.194923 -2.84985 0.00023197
764 1 0.583333 0.45 0.127932 -2.85167 0.000302638
787 1 0.583333 0.55 0.127932 -2.85167 0.000302638
880 1 0.6 0.5 0.194923 -2.84985 0.00023197
886 1 0.65 0.45 0.194923 -2.84985 0.00023197
912 1 0.65 0.55 0.194923 -2.84985 0.00023197
914 1 0.633333 0.5 0.127932 -2.85167 0.000302638
916 1 0.683333 0.45 0.127932 -2.85167 0.000302638
917 1 0.683333 0.55 0.127932 -2.85167 0.000302638
1037 1 0.7 0.5 0.194923 -2.84985 0.00023197
1038 1 0.733333 0.5 0.127932 -2.85167 0.000302638
1039 1 0.75 0.45 0.194923 -2.84985 0.00023197
1040 1 0.75 0.55 0.194923 -2.84985 0.00023197
1044 1 0.783333 0.45 0.127932 -2.85167 0.000302638
1067 1 0.783333 0.55 0.127932 -2.85167 0.000302638
1160 1 0.8 0.5 0.194923 -2.84985 0.00023197
1194 1 0.833333 0.5 0.127932 -2.85167 0.000302638
1166 1 0.85 0.45 0.194923 -2.84985 0.00023197
1192 1 0.85 0.55 0.194923 -2.84985 0.00023197
1196 1 0.883333 0.45 0.127932 -2.85167 0.000302638
1197 1 0.883333 0.55 0.127932 -2.85167 0.000302638
1312 1 0.9 0.5 0.194923 -2.84985 0.00023197
1313 1 0.933333 0.5 0.127932 -2.85167 0.000302638
1314 1 0.95 0.45 0.194923 -2.84985 0.00023197
1315 1 0.95 0.55 0.194923 -2.84985 0.00023197
1319 1 0.983333 0.45 0.127932 -2.85167 0.000302638
1336 1 0.983333 0.55 0.127932 -2.85167 0.000302638
69 1 1.77309e-17 0.7 0.194923 -2.84985 0.00023197
72 1 0 0.6 0.194923 -2.84985 0.00023197
73 1 0.0333333 0.6 0.127932 -2.85167 0.000302638
75 1 0.05 0.65 0.194923 -2.84985 0.00023197
94 1 0.0333333 0.7 0.127932 -2.85167 0.000302638
96 1 0.0833333 0.65 0.127932 -2.85167 0.000302638
194 1 0.1 0.6 0.194923 -2.84985 0.00023197
221 1 0.1 0.7 0.194923 -2.84985 0.00023197
222 1 0.133333 0.7 0.127932 -2.85167 0.000302638
223 1 0.15 0.65 0.194923 -2.84985 0.00023197
225 1 0.133333 0.6 0.127932 -2.85167 0.000302638
228 1 0.183333 0.65 0.127932 -2.85167 0.000302638
347 1 0.2 0.7 0.194923 -2.84985 0.00023197