ITEM: TIMESTEP
111
ITEM: NUMBER OF ATOMS
3200
ITEM: BOX BOUNDS pp pp ss
0.0000000000000000e+00 5.0092067021360698e+01
0.0000000000000000e+00 2.8920668379047399e+01
-1.5671243861047840e-01 3.5533785112952430e+01
ITEM: ATOMS id type xs ys zs c_peratom c_csym
1 1 1.55566e-07 0.0999997 0.000102765 -2.4771 24.5082
2 1 0.0166667 0.0500003 0.0651005 -2.83187 0.00500532
5 1 0.0499998 0.0500001 0.0001028 -2.4771 24.5083
45 1 0.0666666 0.0999999 0.0651005 -2.83187 0.00500511
48 1 0.0666665 1.55797e-07 0.0651004 -2.83187 0.00500672
49 1 0.0999999 1.02684e-07 0.000102666 -2.4771 24.5084
50 1 0.116667 0.0499997 0.0651004 -2.83187 0.0050067
66 1 0.0999998 0.0999999 0.000102778 -2.4771 24.5083
67 1 0.15 0.0500002 0.000102834 -2.4771 24.5083
178 1 0.166667 0.1 0.0651004 -2.83187 0.00500658
179 1 0.2 0.1 0.000102767 -2.4771 24.5082
180 1 0.216667 0.0500002 0.0651005 -2.83187 0.00500531
182 1 0.2 1.84467e-07 0.000102945 -2.4771 24.5081
183 1 0.25 0.0500001 0.000102657 -2.4771 24.5084
304 1 0.266667 0.0999997 0.0651003 -2.83187 0.00500842
307 1 0.266666 3.81866e-09 0.0651004 -2.83187 0.00500663
308 1 0.3 7.36748e-08 0.000102722 -2.4771 24.5083
309 1 0.316666 0.0499998 0.0651005 -2.83187 0.00500574
335 1 0.3 0.0999999 0.000102808 -2.4771 24.5083
336 1 0.35 0.0499997 0.00010287 -2.4771 24.5082
458 1 0.366667 0.0999999 0.0651004 -2.83187 0.00500724
459 1 0.4 0.1 0.000102708 -2.4771 24.5083
460 1 0.416666 0.0500002 0.0651006 -2.83187 0.0050033
462 1 0.4 2.26768e-07 0.000102773 -2.4771 24.5083
463 1 0.45 0.05 0.000102838 -2.4771 24.5082
584 1 0.466667 0.1 0.0651005 -2.83187 0.0050057
588 1 0.5 7.99778e-08 0.000102744 -2.4771 24.5084
615 1 0.5 0.0999999 0.000102859 -2.4771 24.5082
589 1 0.516667 0.0499997 0.0651004 -2.83187 0.00500691
616 1 0.55 0.0500002 0.000102785 -2.4771 24.5083
715 1 0.566667 1.20563e-09 0.0651004 -2.83187 0.00500714
738 1 0.566667 0.1 0.0651005 -2.83187 0.00500617
739 1 0.6 0.1 0.00010294 -2.4771 24.5081
740 1 0.616667 0.0500001 0.0651004 -2.83187 0.00500683
743 1 0.65 0.05 0.000102695 -2.4771 24.5084
864 1 0.666667 0.1 0.0651004 -2.83187 0.00500719
867 1 0.666667 6.82114e-08 0.0651004 -2.83187 0.00500578
869 1 0.716667 0.0499999 0.0651005 -2.83187 0.00500624
895 1 0.7 0.1 0.000102761 -2.4771 24.5084
896 1 0.75 0.0500003 0.000102939 -2.4771 24.5081
1018 1 0.766667 0.1 0.0651004 -2.83187 0.00500704
1019 1 0.8 0.0999999 0.000102834 -2.4771 24.5083
1020 1 0.816667 0.05 0.0651006 -2.83187 0.00500418
1023 1 0.85 0.0499997 0.000102769 -2.4771 24.5082
1144 1 0.866667 0.1 0.0651004 -2.83187 0.00500711
1147 1 0.866667 2.39766e-07 0.0651005 -2.83187 0.0050046
1148 1 0.9 9.55149e-08 0.000102904 -2.4771 24.5082
1149 1 0.916667 0.0499998 0.0651005 -2.83187 0.00500617
1175 1 0.9 0.1 0.000102951 -2.4771 24.5081
4 1 1 3.22296e-08 0.000102864 -2.4771 24.5083
1176 1 0.95 0.0499998 0.000102759 -2.4771 24.5083
1275 1 0.966667 5.9967e-08 0.0651004 -2.83187 0.00500702
1298 1 0.966667 0.0999997 0.0651003 -2.83187 0.00500818
3 1 0.0166665 0.15 0.0651004 -2.83187 0.00500687
7 1 0.0166668 0.25 0.0651005 -2.83187 0.00500585
10 1 0.05 0.15 0.000102812 -2.4771 24.5082
11 1 0.05 0.25 0.000102711 -2.4771 24.5083
62 1 0.0666665 0.2 0.0651004 -2.83187 0.00500721
63 1 0.1 0.2 0.000102762 -2.4771 24.5082
64 1 0.116667 0.15 0.0651005 -2.83187 0.0050053
65 1 0.116667 0.25 0.0651004 -2.83187 0.00500568
68 1 0.15 0.15 0.00010277 -2.4771 24.5084
85 1 0.15 0.25 0.00010273 -2.4771 24.5082
175 1 0.166667 0.2 0.0651005 -2.83187 0.0050052
181 1 0.216667 0.15 0.0651005 -2.83187 0.00500557
207 1 0.216667 0.25 0.0651004 -2.83187 0.00500794
209 1 0.2 0.2 0.000102742 -2.4771 24.5083
210 1 0.25 0.15 0.000102683 -2.4771 24.5083
211 1 0.25 0.25 0.000102874 -2.4771 24.5081
331 1 0.266667 0.2 0.0651004 -2.83187 0.00500628
332 1 0.3 0.2 0.000102755 -2.4771 24.5084
333 1 0.316667 0.15 0.0651004 -2.83187 0.0050063
334 1 0.316667 0.25 0.0651004 -2.83187 0.00500659
337 1 0.35 0.15 0.000102769 -2.4771 24.5082
363 1 0.35 0.25 0.000102775 -2.4771 24.5082
455 1 0.366667 0.2 0.0651004 -2.83187 0.00500651
461 1 0.416667 0.15 0.0651004 -2.83187 0.00500563
489 1 0.4 0.2 0.000102658 -2.4771 24.5083
487 1 0.416667 0.25 0.0651004 -2.83187 0.00500629
490 1 0.45 0.15 0.000102761 -2.4771 24.5083
491 1 0.45 0.25 0.000102708 -2.4771 24.5083
611 1 0.466667 0.2 0.0651004 -2.83187 0.00500683
612 1 0.5 0.2 0.00010279 -2.4771 24.5082
613 1 0.516667 0.15 0.0651004 -2.83187 0.00500675
614 1 0.516667 0.25 0.0651005 -2.83187 0.00500528
617 1 0.55 0.15 0.000102737 -2.4771 24.5084
643 1 0.55 0.25 0.000102766 -2.4771 24.5082
735 1 0.566666 0.2 0.0651003 -2.83187 0.00500829
741 1 0.616667 0.15 0.0651004 -2.83187 0.00500668
767 1 0.616667 0.25 0.0651005 -2.83187 0.00500447
769 1 0.6 0.2 0.000102674 -2.4771 24.5084
770 1 0.65 0.15 0.000102715 -2.4771 24.5083
771 1 0.65 0.25 0.000102937 -2.4771 24.5082
891 1 0.666667 0.2 0.0651005 -2.83187 0.0050067
892 1 0.7 0.2 0.000102932 -2.4771 24.5081
893 1 0.716667 0.15 0.0651004 -2.83187 0.00500675
894 1 0.716667 0.25 0.0651006 -2.83187 0.00500471
897 1 0.75 0.15 0.000102896 -2.4771 24.5082
923 1 0.75 0.25 0.000102871 -2.4771 24.5082
1015 1 0.766667 0.2 0.0651005 -2.83187 0.00500613
1021 1 0.816667 0.15 0.0651005 -2.83187 0.00500492
1047 1 0.816667 0.25 0.0651004 -2.83187 0.00500673
1049 1 0.8 0.2 0.000102753 -2.4771 24.5083
1050 1 0.85 0.15 0.000102647 -2.4771 24.5086
1051 1 0.85 0.25 0.000102854 -2.4771 24.5083
1171 1 0.866667 0.2 0.0651005 -2.83187 0.00500611
1172 1 0.9 0.2 0.000102915 -2.4771 24.5083
9 1 1 0.2 0.000102695 -2.4771 24.5083
1173 1 0.916667 0.15 0.0651006 -2.83187 0.00500518
1174 1 0.916667 0.25 0.0651005 -2.83187 0.00500677
1177 1 0.95 0.15 0.000102902 -2.4771 24.5082
1203 1 0.95 0.25 0.000102942 -2.4771 24.5081
1295 1 0.966667 0.2 0.0651006 -2.83187 0.00500417
6 1 6.51908e-08 0.3 0.000102936 -2.4771 24.5081
8 1 0.0166665 0.35 0.0651004 -2.83187 0.00500621
16 1 0.05 0.35 0.000102887 -2.4771 24.5082
59 1 0.0666669 0.3 0.0651004 -2.83187 0.0050068
80 1 0.0666666 0.4 0.0651005 -2.83187 0.00500502
81 1 0.0999999 0.4 0.000102744 -2.4771 24.5082
82 1 0.116667 0.35 0.0651003 -2.83187 0.00500682
84 1 0.1 0.3 0.0001026 -2.4771 24.5085
86 1 0.15 0.35 0.000102743 -2.4771 24.5083
202 1 0.166667 0.4 0.0651005 -2.83187 0.00500512
205 1 0.166667 0.3 0.0651005 -2.83187 0.00500525
206 1 0.2 0.3 0.00010287 -2.4771 24.5081
208 1 0.216667 0.35 0.0651005 -2.83187 0.00500547
233 1 0.2 0.4 0.000102922 -2.4771 24.5081
234 1 0.25 0.35 0.000102697 -2.4771 24.5084
328 1 0.266667 0.3 0.0651004 -2.83187 0.00500629
358 1 0.266667 0.4 0.0651004 -2.83187 0.00500658
359 1 0.3 0.4 0.000102788 -2.4771 24.5082
360 1 0.316667 0.35 0.0651005 -2.83187 0.00500459
362 1 0.3 0.3 0.000102768 -2.4771 24.5082
364 1 0.35 0.35 0.000102723 -2.4771 24.5082
482 1 0.366667 0.4 0.0651004 -2.83187 0.00500532
485 1 0.366667 0.3 0.0651002 -2.83187 0.00500826
486 1 0.4 0.3 0.000102689 -2.4771 24.5083
513 1 0.4 0.4 0.000102801 -2.4771 24.5082
488 1 0.416667 0.35 0.0651004 -2.83187 0.00500638
514 1 0.45 0.35 0.000102634 -2.4771 24.5083
608 1 0.466667 0.3 0.0651003 -2.83187 0.00500679
638 1 0.466667 0.4 0.0651004 -2.83187 0.00500648
639 1 0.5 0.4 0.000102882 -2.4771 24.5081
642 1 0.5 0.3 0.000102771 -2.4771 24.5083
640 1 0.516667 0.35 0.0651003 -2.83187 0.00500712
644 1 0.55 0.35 0.000102658 -2.4771 24.5083
762 1 0.566667 0.4 0.0651003 -2.83187 0.00500709
765 1 0.566667 0.3 0.0651005 -2.83187 0.0050052
766 1 0.6 0.3 0.00010282 -2.4771 24.5082
768 1 0.616667 0.35 0.0651004 -2.83187 0.00500683
793 1 0.6 0.4 0.000102733 -2.4771 24.5083
794 1 0.65 0.35 0.000102805 -2.4771 24.5083
888 1 0.666667 0.3 0.0651006 -2.83187 0.00500475
918 1 0.666667 0.4 0.0651005 -2.83187 0.00500573
919 1 0.7 0.4 0.000102788 -2.4771 24.5082
920 1 0.716667 0.35 0.0651004 -2.83187 0.00500744
922 1 0.7 0.3 0.000102842 -2.4771 24.5083
924 1 0.75 0.35 0.000102901 -2.4771 24.5082
1042 1 0.766667 0.4 0.0651005 -2.83187 0.00500609
1045 1 0.766667 0.3 0.0651005 -2.83187 0.00500662
1046 1 0.8 0.3 0.000102825 -2.4771 24.5083
1048 1 0.816667 0.35 0.0651004 -2.83187 0.00500657
1073 1 0.8 0.4 0.000102898 -2.4771 24.5082
1074 1 0.85 0.35 0.000102875 -2.4771 24.5082
1168 1 0.866667 0.3 0.0651005 -2.83187 0.00500601
1198 1 0.866667 0.4 0.0651004 -2.83187 0.00500753
1199 1 0.9 0.4 0.000102868 -2.4771 24.5081
1202 1 0.9 0.3 0.000102821 -2.4771 24.5083
15 1 1 0.4 0.000102607 -2.4771 24.5085
1200 1 0.916667 0.35 0.0651004 -2.83187 0.00500628
1204 1 0.95 0.35 0.00010263 -2.4771 24.5085
1317 1 0.966667 0.4 0.0651004 -2.83187 0.00500515
1320 1 0.966667 0.3 0.0651005 -2.83187 0.00500687
13 1 0.0166665 0.45 0.0651003 -2.83187 0.00500676
14 1 0.0166666 0.55 0.0651004 -2.83187 0.00500738
17 1 0.0500002 0.45 0.000102822 -2.4771 24.5081
22 1 0.0500002 0.55 0.000102811 -2.4771 24.5082
77 1 0.0666668 0.5 0.0651004 -2.83187 0.00500591
83 1 0.116667 0.45 0.0651004 -2.83187 0.00500648
100 1 0.116667 0.55 0.0651005 -2.83187 0.00500558
102 1 0.0999999 0.5 0.000102678 -2.4771 24.5085
103 1 0.15 0.45 0.000102748 -2.4771 24.5083
104 1 0.15 0.55 0.00010282 -2.4771 24.5082
229 1 0.166667 0.5 0.0651004 -2.83187 0.00500704
230 1 0.2 0.5 0.000102779 -2.4771 24.5083
231 1 0.216667 0.45 0.0651005 -2.83187 0.00500669
232 1 0.216667 0.55 0.0651004 -2.83187 0.00500606
250 1 0.25 0.55 0.000102687 -2.4771 24.5084
235 1 0.25 0.45 0.000102853 -2.4771 24.5083
355 1 0.266667 0.5 0.0651003 -2.83187 0.00500769
361 1 0.316667 0.45 0.0651004 -2.83187 0.00500533
380 1 0.316667 0.55 0.0651003 -2.83187 0.00500766
382 1 0.3 0.5 0.000102709 -2.4771 24.5082
383 1 0.35 0.45 0.000102678 -2.4771 24.5083
384 1 0.35 0.55 0.00010274 -2.4771 24.5083
509 1 0.366667 0.5 0.0651005 -2.83187 0.00500485
510 1 0.4 0.5 0.000102722 -2.4771 24.5082
511 1 0.416667 0.45 0.0651003 -2.83187 0.00500791
512 1 0.416667 0.55 0.0651005 -2.83187 0.00500423
515 1 0.45 0.45 0.000102645 -2.4771 24.5084
530 1 0.45 0.55 0.000102716 -2.4771 24.5083
635 1 0.466667 0.5 0.0651003 -2.83187 0.00500721
662 1 0.5 0.5 0.000102809 -2.4771 24.5081
641 1 0.516667 0.45 0.0651006 -2.83187 0.00500413
660 1 0.516667 0.55 0.0651004 -2.83187 0.00500646
663 1 0.55 0.45 0.000102724 -2.4771 24.5084
664 1 0.55 0.55 0.000102797 -2.4771 24.5082
789 1 0.566667 0.5 0.0651004 -2.83187 0.00500561
790 1 0.6 0.5 0.000102788 -2.4771 24.5082
791 1 0.616667 0.45 0.0651003 -2.83187 0.0050074
792 1 0.616667 0.55 0.0651004 -2.83187 0.00500573
795 1 0.65 0.45 0.000102657 -2.4771 24.5083
810 1 0.65 0.55 0.00010266 -2.4771 24.5083
915 1 0.666667 0.5 0.0651004 -2.83187 0.00500597
921 1 0.716667 0.45 0.0651004 -2.83187 0.00500672
940 1 0.716667 0.55 0.0651004 -2.83187 0.00500667
942 1 0.7 0.5 0.000102749 -2.4771 24.5083
944 1 0.75 0.55 0.000102717 -2.4771 24.5083
943 1 0.75 0.45 0.000102784 -2.4771 24.5083
1069 1 0.766667 0.5 0.0651005 -2.83187 0.00500491
1070 1 0.8 0.5 0.00010269 -2.4771 24.5084
1071 1 0.816667 0.45 0.0651004 -2.83187 0.00500665
1072 1 0.816667 0.55 0.0651005 -2.83187 0.00500444
1075 1 0.85 0.45 0.000102676 -2.4771 24.5084
1090 1 0.85 0.55 0.000102787 -2.4771 24.5082
1195 1 0.866667 0.5 0.0651004 -2.83187 0.00500686
1201 1 0.916666 0.45 0.0651006 -2.83187 0.00500425
1222 1 0.9 0.5 0.000102649 -2.4771 24.5083
12 1 1 0.5 0.00010274 -2.4771 24.5084
1220 1 0.916667 0.55 0.0651004 -2.83187 0.00500614
1223 1 0.95 0.45 0.000102786 -2.4771 24.5081
1224 1 0.95 0.55 0.000102751 -2.4771 24.5082
1338 1 0.966667 0.5 0.0651004 -2.83187 0.00500684
18 1 1.05497e-07 0.7 0.000102815 -2.4771 24.5083
19 1 0.0166668 0.65 0.0651004 -2.83187 0.00500643
21 1 1.68545e-07 0.6 0.000102862 -2.4771 24.5081
23 1 0.0499999 0.65 0.000102708 -2.4771 24.5084
95 1 0.0666665 0.7 0.0651005 -2.83187 0.00500533
98 1 0.0666665 0.6 0.0651005 -2.83187 0.00500559
99 1 0.1 0.6 0.000102823 -2.4771 24.5083
101 1 0.116667 0.65 0.0651004 -2.83187 0.00500746
114 1 0.0999999 0.7 0.0001028 -2.4771 24.5083
115 1 0.15 0.65 0.000102705 -2.4771 24.5085
245 1 0.166667 0.7 0.0651005 -2.83187 0.00500595
226 1 0.166667 0.6 0.0651003 -2.83187 0.00500728
246 1 0.2 0.7 0.000102865 -2.4771 24.5082
247 1 0.216667 0.65 0.0651004 -2.83187 0.00500741
249 1 0.2 0.6 0.000102743 -2.4771 24.5083
251 1 0.25 0.65 0.000102815 -2.4771 24.5082
375 1 0.266667 0.7 0.0651005 -2.83187 0.00500639
378 1 0.266667 0.6 0.0651006 -2.83187 0.00500499
379 1 0.3 0.6 0.000102861 -2.4771 24.5082
381 1 0.316666 0.65 0.0651005 -2.83187 0.00500593
394 1 0.3 0.7 0.000102867 -2.4771 24.5083
395 1 0.35 0.65 0.000102798 -2.4771 24.5082
506 1 0.366667 0.6 0.0651004 -2.83187 0.00500762
525 1 0.366667 0.7 0.0651002 -2.83187 0.00500894
526 1 0.4 0.7 0.000102645 -2.4771 24.5084
529 1 0.4 0.6 0.000102868 -2.4771 24.5081
527 1 0.416667 0.65 0.0651004 -2.83187 0.00500672
531 1 0.45 0.65 0.000102942 -2.4771 24.5081
655 1 0.466667 0.7 0.0651005 -2.83187 0.00500646
658 1 0.466667 0.6 0.0651004 -2.83187 0.00500719
659 1 0.5 0.6 0.000102699 -2.4771 24.5083
674 1 0.5 0.7 0.000102718 -2.4771 24.5084
661 1 0.516667 0.65 0.0651004 -2.83187 0.00500581
675 1 0.55 0.65 0.000102643 -2.4771 24.5084
786 1 0.566667 0.6 0.0651003 -2.83187 0.0050074
805 1 0.566667 0.7 0.0651004 -2.83187 0.00500688
806 1 0.6 0.7 0.000102895 -2.4771 24.5082
807 1 0.616667 0.65 0.0651005 -2.83187 0.00500546
809 1 0.6 0.6 0.000102612 -2.4771 24.5082
811 1 0.65 0.65 0.000102767 -2.4771 24.5082
938 1 0.666667 0.6 0.0651004 -2.83187 0.00500615
935 1 0.666667 0.7 0.0651004 -2.83187 0.00500653
939 1 0.7 0.6 0.000102692 -2.4771 24.5083
941 1 0.716667 0.65 0.0651004 -2.83187 0.00500632
954 1 0.7 0.7 0.000102758 -2.4771 24.5083
955 1 0.75 0.65 0.000102733 -2.4771 24.5082
1066 1 0.766667 0.6 0.0651005 -2.83187 0.00500495
1085 1 0.766667 0.7 0.0651003 -2.83187 0.00500756
1086 1 0.8 0.7 0.00010274 -2.4771 24.5083
1087 1 0.816667 0.65 0.0651003 -2.83187 0.00500851
1089 1 0.8 0.6 0.000102703 -2.4771 24.5083
1091 1 0.85 0.65 0.000102769 -2.4771 24.5081
1215 1 0.866667 0.7 0.0651004 -2.83187 0.00500725
1218 1 0.866667 0.6 0.0651004 -2.83187 0.00500559
1219 1 0.9 0.6 0.000102755 -2.4771 24.5083
1234 1 0.9 0.7 0.000102723 -2.4771 24.5083
1221 1 0.916667 0.65 0.0651004 -2.83187 0.00500683
1235 1 0.95 0.65 0.000102861 -2.4771 24.5082
1335 1 0.966667 0.6 0.0651004 -2.83187 0.00500628
1348 1 0.966667 0.7 0.0651004 -2.83187 0.00500737
20 1 0.0166667 0.75 0.0651005 -2.83187 0.00500613
25 1 0.0166666 0.85 0.0651005 -2.83187 0.00500677
28 1 0.0499999 0.75 0.000102854 -2.4771 24.5083
29 1 0.0499999 0.85 0.000102823 -2.4771 24.5083
110 1 0.0666666 0.8 0.0651004 -2.83187 0.00500609
111 1 0.0999998 0.8 0.000102821 -2.4771 24.5082
112 1 0.116667 0.75 0.0651004 -2.83187 0.00500625
113 1 0.116667 0.85 0.0651004 -2.83187 0.00500627
116 1 0.15 0.75 0.000102775 -2.4771 24.5083
119 1 0.15 0.85 0.000102611 -2.4771 24.5084
242 1 0.166667 0.8 0.0651004 -2.83187 0.00500642
248 1 0.216666 0.75 0.0651005 -2.83187 0.00500585
255 1 0.216667 0.85 0.0651003 -2.83187 0.00500763
257 1 0.2 0.8 0.000102741 -2.4771 24.5083
259 1 0.25 0.85 0.000102735 -2.4771 24.5084
258 1 0.25 0.75 0.000102869 -2.4771 24.5081
390 1 0.266667 0.8 0.0651005 -2.83187 0.00500612
391 1 0.3 0.8 0.000102956 -2.4771 24.5081
392 1 0.316667 0.75 0.0651005 -2.83187 0.00500678
393 1 0.316667 0.85 0.0651006 -2.83187 0.00500554
396 1 0.35 0.75 0.000102686 -2.4771 24.5084
399 1 0.35 0.85 0.00010275 -2.4771 24.5083
522 1 0.366667 0.8 0.0651002 -2.83187 0.00500922
535 1 0.416667 0.85 0.0651004 -2.83187 0.00500726
537 1 0.4 0.8 0.000102655 -2.4771 24.5083
528 1 0.416667 0.75 0.0651004 -2.83187 0.00500618
538 1 0.45 0.75 0.000102846 -2.4771 24.5082
539 1 0.45 0.85 0.000102843 -2.4771 24.5082
670 1 0.466667 0.8 0.0651006 -2.83187 0.00500371
671 1 0.5 0.8 0.000102825 -2.4771 24.5082
672 1 0.516667 0.75 0.0651005 -2.83187 0.00500499
673 1 0.516667 0.85 0.0651004 -2.83187 0.00500657
676 1 0.55 0.75 0.000102846 -2.4771 24.5082
679 1 0.55 0.85 0.000102676 -2.4771 24.5084
802 1 0.566667 0.8 0.0651004 -2.83187 0.00500678
808 1 0.616666 0.75 0.0651005 -2.83187 0.00500641
815 1 0.616667 0.85 0.0651004 -2.83187 0.00500672
817 1 0.6 0.8 0.000102897 -2.4771 24.5082
818 1 0.65 0.75 0.000102795 -2.4771 24.5084
819 1 0.65 0.85 0.000102896 -2.4771 24.5081
950 1 0.666667 0.8 0.0651005 -2.83187 0.005006
951 1 0.7 0.8 0.000102861 -2.4771 24.5082
952 1 0.716667 0.75 0.0651005 -2.83187 0.00500524
953 1 0.716666 0.85 0.0651004 -2.83187 0.00500759
956 1 0.75 0.75 0.000102711 -2.4771 24.5084
959 1 0.75 0.85 0.000102844 -2.4771 24.5081
1082 1 0.766667 0.8 0.0651005 -2.83187 0.00500474
1088 1 0.816667 0.75 0.0651004 -2.83187 0.00500744
1095 1 0.816667 0.85 0.0651005 -2.83187 0.00500565
1097 1 0.8 0.8 0.000102722 -2.4771 24.5084
1098 1 0.85 0.75 0.000102816 -2.4771 24.5082
1099 1 0.85 0.85 0.000102835 -2.4771 24.5081
1230 1 0.866667 0.8 0.0651005 -2.83187 0.0050045
1231 1 0.9 0.8 0.000102711 -2.4771 24.5083
1233 1 0.916667 0.85 0.0651003 -2.83187 0.00500843
27 1 1 0.8 0.000102919 -2.4771 24.5081
1232 1 0.916667 0.75 0.0651004 -2.83187 0.00500643
1236 1 0.95 0.75 0.000102856 -2.4771 24.5081
1239 1 0.95 0.85 0.00010271 -2.4771 24.5083
1345 1 0.966667 0.8 0.0651006 -2.83187 0.00500444
24 1 1.49884e-07 0.9 0.000102815 -2.4771 24.5082
26 1 0.0166667 0.95 0.0651005 -2.83187 0.00500518
30 1 0.0500002 0.95 0.000102803 -2.4771 24.5082
107 1 0.0666668 0.9 0.0651004 -2.83187 0.00500696
117 1 0.116667 0.95 0.0651003 -2.83187 0.00500801
118 1 0.0999998 0.9 0.000102752 -2.4771 24.5082
120 1 0.15 0.95 0.000102718 -2.4771 24.5084
253 1 0.166667 0.9 0.0651004 -2.83187 0.00500562
155 1 0.166667 1 0.0651004 -2.83187 0.00500729
254 1 0.2 0.9 0.000102753 -2.4771 24.5082
256 1 0.216667 0.95 0.0651004 -2.83187 0.00500739
260 1 0.25 0.95 0.00010278 -2.4771 24.5081
387 1 0.266667 0.9 0.0651006 -2.83187 0.00500358
397 1 0.316667 0.95 0.0651004 -2.83187 0.00500675
398 1 0.3 0.9 0.000102941 -2.4771 24.5081
435 1 0.366667 1 0.0651005 -2.83187 0.00500667
400 1 0.35 0.95 0.000102902 -2.4771 24.5083
533 1 0.366667 0.9 0.0651006 -2.83187 0.00500471
534 1 0.4 0.9 0.000102798 -2.4771 24.5083
536 1 0.416667 0.95 0.0651006 -2.83187 0.00500387
587 1 0.466667 1 0.0651004 -2.83187 0.00500681
540 1 0.45 0.95 0.000102922 -2.4771 24.5082
667 1 0.466667 0.9 0.0651004 -2.83187 0.00500637
678 1 0.5 0.9 0.000102636 -2.4771 24.5083
677 1 0.516667 0.95 0.0651004 -2.83187 0.00500606
680 1 0.55 0.95 0.000102915 -2.4771 24.5081
813 1 0.566667 0.9 0.0651004 -2.83187 0.0050073
742 1 0.6 1 0.000102864 -2.4771 24.508
814 1 0.6 0.9 0.000102635 -2.4771 24.5084
816 1 0.616667 0.95 0.0651005 -2.83187 0.00500414
820 1 0.65 0.95 0.000102779 -2.4771 24.5082
947 1 0.666667 0.9 0.0651004 -2.83187 0.00500634
868 1 0.7 1 0.000102812 -2.4771 24.5083
957 1 0.716667 0.95 0.0651004 -2.83187 0.00500699
958 1 0.7 0.9 0.000102647 -2.4771 24.5084
960 1 0.75 0.95 0.000102854 -2.4771 24.5082
995 1 0.766667 1 0.0651005 -2.83187 0.00500616
1022 1 0.8 1 0.000102835 -2.4771 24.5083
1093 1 0.766667 0.9 0.0651005 -2.83187 0.00500616
1094 1 0.8 0.9 0.000102838 -2.4771 24.5083
1096 1 0.816667 0.95 0.0651003 -2.83187 0.00500798
1100 1 0.85 0.95 0.000102635 -2.4771 24.5084
1227 1 0.866667 0.9 0.0651005 -2.83187 0.00500529
1238 1 0.9 0.9 0.000102815 -2.4771 24.5082
1237 1 0.916667 0.95 0.0651005 -2.83187 0.00500575
1240 1 0.95 0.95 0.000102813 -2.4771 24.5083
1350 1 0.966667 0.9 0.0651005 -2.83187 0.00500597
36 1 0.0500001 0.0499997 0.19741 -2.85004 3.65606e-08
44 1 0.0333332 0.0999998 0.131243 -2.8512 2.32546e-06
46 1 0.0833335 0.0499999 0.131243 -2.8512 2.32486e-06
150 1 0.1 0.1 0.19741 -2.85004 3.74614e-08
151 1 0.133333 0.1 0.131243 -2.8512 2.37848e-06
152 1 0.15 0.0499999 0.19741 -2.85004 3.53405e-08
156 1 0.183333 0.05 0.131243 -2.8512 2.35175e-06
280 1 0.2 0.1 0.19741 -2.85004 3.76279e-08
284 1 0.233333 1.11071e-07 0.131243 -2.8512 2.33298e-06
285 1 0.25 0.0499999 0.19741 -2.85004 3.36609e-08
303 1 0.233333 0.1 0.131243 -2.8512 2.32587e-06
305 1 0.283333 0.0500002 0.131243 -2.8512 2.30589e-06
430 1 0.3 0.1 0.19741 -2.85004 3.77527e-08
431 1 0.333333 0.1 0.131243 -2.8512 2.38271e-06
434 1 0.333333 2.24051e-07 0.131243 -2.8512 2.35911e-06
432 1 0.35 0.0500003 0.19741 -2.85004 3.74322e-08
436 1 0.383333 0.0499999 0.131243 -2.8512 2.35373e-06
560 1 0.4 0.0999997 0.19741 -2.85004 3.5635e-08
563 1 0.4 7.79891e-08 0.19741 -2.85004 3.5406e-08
564 1 0.433333 3.30343e-07 0.131243 -2.8512 2.37168e-06
565 1 0.45 0.0499997 0.19741 -2.85003 3.39848e-08
583 1 0.433333 0.1 0.131243 -2.8512 2.33986e-06
585 1 0.483333 0.05 0.131242 -2.8512 2.39823e-06
710 1 0.5 0.0999998 0.19741 -2.85004 3.73886e-08
711 1 0.533333 0.1 0.131243 -2.8512 2.31398e-06
712 1 0.55 0.0499998 0.19741 -2.85004 3.61154e-08
714 1 0.533333 1.10326e-07 0.131243 -2.8512 2.32211e-06
716 1 0.583333 0.0499998 0.131243 -2.8512 2.34755e-06
840 1 0.6 0.1 0.19741 -2.85004 3.86147e-08
844 1 0.633333 2.24635e-08 0.131243 -2.8512 2.35773e-06
845 1 0.65 0.0499997 0.19741 -2.85004 4.36506e-08
863 1 0.633333 0.1 0.131243 -2.8512 2.31694e-06
865 1 0.683333 0.0500003 0.131243 -2.8512 2.37493e-06
975 1 0.7 1.52396e-07 0.19741 -2.85004 3.61697e-08
990 1 0.7 0.0999998 0.19741 -2.85004 3.47239e-08
991 1 0.733333 0.1 0.131243 -2.8512 2.3648e-06
992 1 0.75 0.0499997 0.19741 -2.85004 4.05061e-08
994 1 0.733333 7.73562e-08 0.131243 -2.8512 2.33634e-06
996 1 0.783333 0.0499999 0.131243 -2.8512 2.36118e-06
1120 1 0.8 0.1 0.19741 -2.85004 3.58564e-08
1123 1 0.8 3.23937e-07 0.19741 -2.85004 3.90273e-08
1143 1 0.833333 0.1 0.131243 -2.8512 2.3319e-06
1125 1 0.85 0.05 0.19741 -2.85004 3.44776e-08
1145 1 0.883333 0.0500002 0.131243 -2.8512 2.34982e-06
1255 1 0.9 1.558e-07 0.19741 -2.85004 3.18505e-08
1270 1 0.9 0.1 0.19741 -2.85004 4.07016e-08
31 1 1 0.1 0.19741 -2.85004 3.36072e-08
1271 1 0.933333 0.0999997 0.131243 -2.8512 2.3589e-06
1272 1 0.95 0.0500003 0.19741 -2.85003 3.73264e-08
1274 1 0.933333 1.27782e-07 0.131243 -2.8512 2.3411e-06
1276 1 0.983333 0.0500001 0.131243 -2.8512 2.32595e-06
40 1 1.2092e-07 0.2 0.19741 -2.85004 3.58482e-08
41 1 0.0333335 0.2 0.131243 -2.8512 2.32843e-06
42 1 0.0500001 0.15 0.19741 -2.85004 3.80123e-08
43 1 0.05 0.25 0.19741 -2.85004 3.76054e-08
47 1 0.0833333 0.15 0.131243 -2.8512 2.34199e-06
60 1 0.0833333 0.25 0.131243 -2.8512 2.33411e-06
147 1 0.0999999 0.2 0.19741 -2.85004 3.91763e-08
153 1 0.15 0.15 0.19741 -2.85004 3.40375e-08
172 1 0.15 0.25 0.19741 -2.85004 3.28676e-08
174 1 0.133333 0.2 0.131243 -2.8512 2.36028e-06
176 1 0.183333 0.15 0.131243 -2.8512 2.35569e-06
177 1 0.183333 0.25 0.131243 -2.8512 2.34987e-06
299 1 0.2 0.2 0.19741 -2.85004 3.95303e-08
300 1 0.233333 0.2 0.131243 -2.8512 2.34785e-06
301 1 0.25 0.15 0.19741 -2.85004 3.82998e-08
302 1 0.25 0.25 0.19741 -2.85004 3.93474e-08
306 1 0.283333 0.15 0.131243 -2.8512 2.32905e-06
329 1 0.283333 0.25 0.131243 -2.8512 2.34136e-06
427 1 0.3 0.2 0.19741 -2.85004 3.79492e-08
454 1 0.333333 0.2 0.131243 -2.8512 2.37695e-06
433 1 0.35 0.15 0.19741 -2.85004 3.95692e-08
452 1 0.35 0.25 0.19741 -2.85003 3.94111e-08
456 1 0.383333 0.15 0.131243 -2.8512 2.3199e-06
457 1 0.383333 0.25 0.131243 -2.8512 2.34702e-06
579 1 0.4 0.2 0.197409 -2.85004 3.23352e-08
580 1 0.433333 0.2 0.131243 -2.8512 2.34701e-06
581 1 0.45 0.15 0.19741 -2.85004 3.81682e-08
582 1 0.45 0.25 0.19741 -2.85004 4.15449e-08
586 1 0.483333 0.15 0.131243 -2.8512 2.32995e-06
609 1 0.483333 0.25 0.131243 -2.8512 2.36015e-06
707 1 0.5 0.2 0.19741 -2.85004 3.60385e-08
713 1 0.55 0.15 0.19741 -2.85004 4.18749e-08
732 1 0.55 0.25 0.19741 -2.85004 3.71828e-08
734 1 0.533333 0.2 0.131243 -2.8512 2.31858e-06
737 1 0.583333 0.25 0.131243 -2.8512 2.34924e-06
736 1 0.583333 0.15 0.131243 -2.8512 2.35167e-06
859 1 0.6 0.2 0.19741 -2.85004 3.34559e-08
860 1 0.633333 0.2 0.131243 -2.8512 2.33789e-06
861 1 0.65 0.15 0.19741 -2.85004 3.50689e-08
862 1 0.65 0.25 0.19741 -2.85004 3.92133e-08
866 1 0.683333 0.15 0.131243 -2.8512 2.34342e-06
889 1 0.683333 0.25 0.131243 -2.8512 2.34956e-06
987 1 0.7 0.2 0.19741 -2.85004 3.68733e-08
993 1 0.75 0.15 0.19741 -2.85004 4.17636e-08
1012 1 0.75 0.25 0.19741 -2.85004 3.849e-08
1014 1 0.733333 0.2 0.131243 -2.8512 2.3869e-06
1016 1 0.783333 0.15 0.131243 -2.8512 2.35621e-06
1017 1 0.783333 0.25 0.131243 -2.8512 2.32076e-06
1139 1 0.8 0.2 0.19741 -2.85004 3.10735e-08
1140 1 0.833333 0.2 0.131243 -2.8512 2.35477e-06
1141 1 0.85 0.15 0.19741 -2.85004 3.77344e-08
1142 1 0.85 0.25 0.19741 -2.85004 4.00066e-08
1146 1 0.883333 0.15 0.131243 -2.8512 2.33277e-06
1169 1 0.883333 0.25 0.131243 -2.8512 2.32983e-06
1267 1 0.9 0.2 0.19741 -2.85004 3.18581e-08
1273 1 0.95 0.15 0.19741 -2.85004 3.96054e-08
1292 1 0.95 0.25 0.19741 -2.85004 3.57052e-08
1294 1 0.933333 0.2 0.131243 -2.8512 2.35274e-06
1296 1 0.983333 0.15 0.131243 -2.8512 2.34702e-06
1297 1 0.983333 0.25 0.131243 -2.8512 2.3588e-06
54 1 1.27527e-07 0.4 0.19741 -2.85004 3.54815e-08
55 1 0.0333334 0.4 0.131243 -2.8512 2.34947e-06
56 1 0.0500002 0.35 0.19741 -2.85004 3.73035e-08
58 1 0.0333334 0.3 0.131243 -2.8512 2.36149e-06
61 1 0.0833334 0.35 0.131243 -2.8512 2.35723e-06
167 1 0.0999999 0.4 0.19741 -2.85004 4.02104e-08
170 1 0.1 0.3 0.19741 -2.85004 3.79552e-08
171 1 0.133333 0.3 0.131243 -2.8512 2.34662e-06
173 1 0.15 0.35 0.19741 -2.85004 3.97828e-08
201 1 0.133333 0.4 0.131243 -2.8512 2.37113e-06
203 1 0.183333 0.35 0.131243 -2.8512 2.37049e-06
296 1 0.2 0.3 0.19741 -2.85004 3.17649e-08
323 1 0.2 0.4 0.19741 -2.85004 4.07807e-08
324 1 0.233333 0.4 0.131243 -2.8512 2.33694e-06
325 1 0.25 0.35 0.19741 -2.85004 3.74923e-08
327 1 0.233333 0.3 0.131243 -2.8512 2.33363e-06
330 1 0.283333 0.35 0.131243 -2.8512 2.37937e-06
447 1 0.3 0.4 0.19741 -2.85004 3.79454e-08
450 1 0.3 0.3 0.19741 -2.85004 3.73716e-08
451 1 0.333333 0.3 0.131243 -2.8512 2.37223e-06
481 1 0.333333 0.4 0.131243 -2.8512 2.35967e-06
453 1 0.35 0.35 0.19741 -2.85004 3.56792e-08
483 1 0.383333 0.35 0.131243 -2.8512 2.35657e-06
576 1 0.4 0.3 0.19741 -2.85004 3.45878e-08
603 1 0.4 0.4 0.19741 -2.85004 3.20523e-08
604 1 0.433333 0.4 0.131243 -2.8512 2.32286e-06
605 1 0.45 0.35 0.19741 -2.85004 3.72872e-08
607 1 0.433334 0.3 0.131243 -2.8512 2.31888e-06
610 1 0.483333 0.35 0.131243 -2.8512 2.36629e-06
727 1 0.5 0.4 0.19741 -2.85004 3.18034e-08
730 1 0.5 0.3 0.19741 -2.85004 3.70102e-08
731 1 0.533333 0.3 0.131243 -2.8512 2.3589e-06
733 1 0.55 0.35 0.19741 -2.85003 3.59675e-08
761 1 0.533333 0.4 0.131243 -2.8512 2.34471e-06
763 1 0.583333 0.35 0.131243 -2.8512 2.33907e-06
856 1 0.6 0.3 0.19741 -2.85004 3.57622e-08
883 1 0.6 0.4 0.19741 -2.85004 4.29535e-08
884 1 0.633333 0.4 0.131243 -2.8512 2.34694e-06
885 1 0.65 0.35 0.19741 -2.85003 3.33924e-08
887 1 0.633333 0.3 0.131243 -2.8512 2.39635e-06
890 1 0.683333 0.35 0.131243 -2.8512 2.31125e-06
1007 1 0.7 0.4 0.19741 -2.85004 4.04647e-08
1010 1 0.7 0.3 0.19741 -2.85004 3.30463e-08
1011 1 0.733333 0.3 0.131243 -2.8512 2.32601e-06
1041 1 0.733333 0.4 0.131243 -2.8512 2.34059e-06
1013 1 0.75 0.35 0.19741 -2.85004 3.51251e-08
1043 1 0.783333 0.35 0.131243 -2.8512 2.37936e-06
1136 1 0.8 0.3 0.19741 -2.85004 4.06051e-08
1163 1 0.8 0.4 0.19741 -2.85004 3.47154e-08
1167 1 0.833333 0.3 0.131243 -2.8512 2.39009e-06
1164 1 0.833333 0.4 0.131243 -2.8512 2.34302e-06
1165 1 0.85 0.35 0.19741 -2.85004 3.89315e-08
1170 1 0.883333 0.35 0.131243 -2.8512 2.38342e-06
1287 1 0.9 0.4 0.19741 -2.85004 3.9287e-08
1290 1 0.9 0.3 0.19741 -2.85004 3.46403e-08
37 1 1 0.3 0.19741 -2.85004 3.47882e-08
1291 1 0.933333 0.3 0.131243 -2.8512 2.30197e-06
1293 1 0.95 0.35 0.19741 -2.85004 3.95323e-08
1316 1 0.933333 0.4 0.131243 -2.8512 2.36847e-06
1318 1 0.983333 0.35 0.131243 -2.8512 2.31435e-06
51 1 6.51706e-08 0.5 0.19741 -2.85004 3.593e-08
57 1 0.0500001 0.45 0.19741 -2.85003 3.77834e-08
74 1 0.0499999 0.55 0.19741 -2.85004 3.32663e-08
76 1 0.0333333 0.5 0.131243 -2.8512 2.35426e-06
78 1 0.0833333 0.45 0.131243 -2.8512 2.3476e-06
79 1 0.0833332 0.55 0.131243 -2.8512 2.34818e-06
197 1 0.1 0.5 0.19741 -2.85004 3.81281e-08
198 1 0.133333 0.5 0.131243 -2.8512 2.32783e-06
199 1 0.15 0.45 0.19741 -2.85004 3.54131e-08
200 1 0.15 0.55 0.19741 -2.85004 4.10158e-08
204 1 0.183333 0.45 0.131243 -2.8512 2.35268e-06
227 1 0.183333 0.55 0.131243 -2.8512 2.37868e-06
320 1 0.2 0.5 0.19741 -2.85003 3.39951e-08
326 1 0.25 0.45 0.19741 -2.85004 3.5066e-08
352 1 0.25 0.55 0.19741 -2.85004 3.93554e-08
354 1 0.233333 0.5 0.131243 -2.8512 2.34175e-06
356 1 0.283333 0.45 0.131243 -2.8512 2.30878e-06
357 1 0.283333 0.55 0.131243 -2.8512 2.33953e-06
477 1 0.3 0.5 0.19741 -2.85004 3.4198e-08
478 1 0.333333 0.5 0.131242 -2.8512 2.40271e-06
479 1 0.35 0.45 0.19741 -2.85004 3.21576e-08
480 1 0.35 0.55 0.19741 -2.85004 4.26728e-08
484 1 0.383333 0.45 0.131243 -2.8512 2.3157e-06
507 1 0.383333 0.55 0.131243 -2.8512 2.35727e-06
600 1 0.4 0.5 0.19741 -2.85004 3.57191e-08
606 1 0.45 0.45 0.19741 -2.85004 4.08618e-08
632 1 0.45 0.55 0.19741 -2.85004 3.48239e-08
634 1 0.433333 0.5 0.131243 -2.8512 2.36297e-06
636 1 0.483333 0.45 0.131243 -2.8512 2.34202e-06
637 1 0.483333 0.55 0.131243 -2.8512 2.36232e-06
757 1 0.5 0.5 0.19741 -2.85004 4.06073e-08
758 1 0.533333 0.5 0.131243 -2.8512 2.32041e-06
759 1 0.55 0.45 0.19741 -2.85004 3.9044e-08
760 1 0.55 0.55 0.19741 -2.85004 4.07108e-08
764 1 0.583333 0.45 0.131242 -2.8512 2.40416e-06
787 1 0.583333 0.55 0.131243 -2.8512 2.3712e-06
880 1 0.6 0.5 0.197409 -2.85004 3.39729e-08
886 1 0.65 0.45 0.19741 -2.85004 4.23503e-08
912 1 0.65 0.55 0.19741 -2.85004 3.76392e-08
914 1 0.633333 0.5 0.131243 -2.8512 2.28928e-06
916 1 0.683333 0.45 0.131243 -2.8512 2.37048e-06
917 1 0.683333 0.55 0.131243 -2.8512 2.35186e-06
1037 1 0.7 0.5 0.19741 -2.85004 3.59478e-08
1038 1 0.733333 0.5 0.131243 -2.8512 2.35497e-06
1039 1 0.75 0.45 0.19741 -2.85004 3.18044e-08
1040 1 0.75 0.55 0.19741 -2.85004 3.54985e-08
1044 1 0.783333 0.45 0.131243 -2.8512 2.3195e-06
1067 1 0.783333 0.55 0.131243 -2.8512 2.36934e-06
1160 1 0.8 0.5 0.19741 -2.85004 3.76542e-08
1194 1 0.833333 0.5 0.131243 -2.8512 2.33799e-06
1166 1 0.85 0.45 0.19741 -2.85004 3.84074e-08
1192 1 0.85 0.55 0.19741 -2.85004 3.55872e-08
1196 1 0.883333 0.45 0.131243 -2.8512 2.30766e-06
1197 1 0.883333 0.55 0.131243 -2.8512 2.35736e-06
1312 1 0.9 0.5 0.19741 -2.85004 3.48804e-08
1313 1 0.933333 0.5 0.131243 -2.8512 2.32405e-06
1314 1 0.95 0.45 0.19741 -2.85004 3.35454e-08
1315 1 0.95 0.55 0.19741 -2.85004 3.73501e-08