ITEM: TIMESTEP
54
ITEM: NUMBER OF ATOMS
3200
ITEM: BOX BOUNDS pp pp ss
0.0000000000000000e+00 5.0092067021360698e+01
0.0000000000000000e+00 2.8920668379047399e+01
3.8451742731260487e-02 3.5381988531723906e+01
ITEM: ATOMS id type xs ys zs c_peratom c_csym
1 1 0 0.1 -0.00531649 -2.47713 24.5034
2 1 0.0166667 0.05 0.0603089 -2.83183 0.00509945
4 1 0 0 -0.00531649 -2.47713 24.5034
5 1 0.05 0.05 -0.00531649 -2.47713 24.5034
45 1 0.0666667 0.1 0.0603089 -2.83183 0.00509945
48 1 0.0666667 0 0.0603089 -2.83183 0.00509945
49 1 0.1 0 -0.00531649 -2.47713 24.5034
50 1 0.116667 0.05 0.0603089 -2.83183 0.00509945
66 1 0.1 0.1 -0.00531649 -2.47713 24.5034
67 1 0.15 0.05 -0.00531649 -2.47713 24.5034
155 1 0.166667 0 0.0603089 -2.83183 0.00509945
178 1 0.166667 0.1 0.0603089 -2.83183 0.00509945
179 1 0.2 0.1 -0.00531649 -2.47713 24.5034
180 1 0.216667 0.05 0.0603089 -2.83183 0.00509945
182 1 0.2 0 -0.00531649 -2.47713 24.5034
183 1 0.25 0.05 -0.00531649 -2.47713 24.5034
304 1 0.266667 0.1 0.0603089 -2.83183 0.00509945
307 1 0.266667 0 0.0603089 -2.83183 0.00509945
308 1 0.3 0 -0.00531649 -2.47713 24.5034
309 1 0.316667 0.05 0.0603089 -2.83183 0.00509945
335 1 0.3 0.1 -0.00531649 -2.47713 24.5034
336 1 0.35 0.05 -0.00531649 -2.47713 24.5034
435 1 0.366667 0 0.0603089 -2.83183 0.00509945
458 1 0.366667 0.1 0.0603089 -2.83183 0.00509945
459 1 0.4 0.1 -0.00531649 -2.47713 24.5034
460 1 0.416667 0.05 0.0603089 -2.83183 0.00509945
462 1 0.4 0 -0.00531649 -2.47713 24.5034
463 1 0.45 0.05 -0.00531649 -2.47713 24.5034
584 1 0.466667 0.1 0.0603089 -2.83183 0.00509945
587 1 0.466667 0 0.0603089 -2.83183 0.00509945
588 1 0.5 0 -0.00531649 -2.47713 24.5034
615 1 0.5 0.1 -0.00531649 -2.47713 24.5034
589 1 0.516667 0.05 0.0603089 -2.83183 0.00509945
616 1 0.55 0.05 -0.00531649 -2.47713 24.5034
715 1 0.566667 0 0.0603089 -2.83183 0.00509945
738 1 0.566667 0.1 0.0603089 -2.83183 0.00509945
739 1 0.6 0.1 -0.00531649 -2.47713 24.5034
740 1 0.616667 0.05 0.0603089 -2.83183 0.00509945
742 1 0.6 0 -0.00531649 -2.47713 24.5034
743 1 0.65 0.05 -0.00531649 -2.47713 24.5034
864 1 0.666667 0.1 0.0603089 -2.83183 0.00509945
867 1 0.666667 0 0.0603089 -2.83183 0.00509945
868 1 0.7 0 -0.00531649 -2.47713 24.5034
869 1 0.716667 0.05 0.0603089 -2.83183 0.00509945
895 1 0.7 0.1 -0.00531649 -2.47713 24.5034
896 1 0.75 0.05 -0.00531649 -2.47713 24.5034
995 1 0.766667 0 0.0603089 -2.83183 0.00509945
1018 1 0.766667 0.1 0.0603089 -2.83183 0.00509945
1019 1 0.8 0.1 -0.00531649 -2.47713 24.5034
1020 1 0.816667 0.05 0.0603089 -2.83183 0.00509945
1022 1 0.8 0 -0.00531649 -2.47713 24.5034
1023 1 0.85 0.05 -0.00531649 -2.47713 24.5034
1144 1 0.866667 0.1 0.0603089 -2.83183 0.00509945
1147 1 0.866667 0 0.0603089 -2.83183 0.00509945
1148 1 0.9 0 -0.00531649 -2.47713 24.5034
1149 1 0.916667 0.05 0.0603089 -2.83183 0.00509945
1175 1 0.9 0.1 -0.00531649 -2.47713 24.5034
1176 1 0.95 0.05 -0.00531649 -2.47713 24.5034
1275 1 0.966667 0 0.0603089 -2.83183 0.00509945
1298 1 0.966667 0.1 0.0603089 -2.83183 0.00509945
3 1 0.0166667 0.15 0.0603089 -2.83183 0.00509945
7 1 0.0166667 0.25 0.0603089 -2.83183 0.00509945
9 1 0 0.2 -0.00531649 -2.47713 24.5034
10 1 0.05 0.15 -0.00531649 -2.47713 24.5034
11 1 0.05 0.25 -0.00531649 -2.47713 24.5034
62 1 0.0666667 0.2 0.0603089 -2.83183 0.00509945
63 1 0.1 0.2 -0.00531649 -2.47713 24.5034
64 1 0.116667 0.15 0.0603089 -2.83183 0.00509945
65 1 0.116667 0.25 0.0603089 -2.83183 0.00509945
68 1 0.15 0.15 -0.00531649 -2.47713 24.5034
85 1 0.15 0.25 -0.00531649 -2.47713 24.5034
175 1 0.166667 0.2 0.0603089 -2.83183 0.00509945
181 1 0.216667 0.15 0.0603089 -2.83183 0.00509945
207 1 0.216667 0.25 0.0603089 -2.83183 0.00509945
209 1 0.2 0.2 -0.00531649 -2.47713 24.5034
210 1 0.25 0.15 -0.00531649 -2.47713 24.5034
211 1 0.25 0.25 -0.00531649 -2.47713 24.5034
331 1 0.266667 0.2 0.0603089 -2.83183 0.00509945
332 1 0.3 0.2 -0.00531649 -2.47713 24.5034
333 1 0.316667 0.15 0.0603089 -2.83183 0.00509945
334 1 0.316667 0.25 0.0603089 -2.83183 0.00509945
337 1 0.35 0.15 -0.00531649 -2.47713 24.5034
363 1 0.35 0.25 -0.00531649 -2.47713 24.5034
455 1 0.366667 0.2 0.0603089 -2.83183 0.00509945
461 1 0.416667 0.15 0.0603089 -2.83183 0.00509945
487 1 0.416667 0.25 0.0603089 -2.83183 0.00509945
489 1 0.4 0.2 -0.00531649 -2.47713 24.5034
490 1 0.45 0.15 -0.00531649 -2.47713 24.5034
491 1 0.45 0.25 -0.00531649 -2.47713 24.5034
611 1 0.466667 0.2 0.0603089 -2.83183 0.00509945
612 1 0.5 0.2 -0.00531649 -2.47713 24.5034
613 1 0.516667 0.15 0.0603089 -2.83183 0.00509945
614 1 0.516667 0.25 0.0603089 -2.83183 0.00509945
617 1 0.55 0.15 -0.00531649 -2.47713 24.5034
643 1 0.55 0.25 -0.00531649 -2.47713 24.5034
735 1 0.566667 0.2 0.0603089 -2.83183 0.00509945
741 1 0.616667 0.15 0.0603089 -2.83183 0.00509945
767 1 0.616667 0.25 0.0603089 -2.83183 0.00509945
769 1 0.6 0.2 -0.00531649 -2.47713 24.5034
770 1 0.65 0.15 -0.00531649 -2.47713 24.5034
771 1 0.65 0.25 -0.00531649 -2.47713 24.5034
891 1 0.666667 0.2 0.0603089 -2.83183 0.00509945
892 1 0.7 0.2 -0.00531649 -2.47713 24.5034
893 1 0.716667 0.15 0.0603089 -2.83183 0.00509945
894 1 0.716667 0.25 0.0603089 -2.83183 0.00509945
897 1 0.75 0.15 -0.00531649 -2.47713 24.5034
923 1 0.75 0.25 -0.00531649 -2.47713 24.5034
1015 1 0.766667 0.2 0.0603089 -2.83183 0.00509945
1021 1 0.816667 0.15 0.0603089 -2.83183 0.00509945
1047 1 0.816667 0.25 0.0603089 -2.83183 0.00509945
1049 1 0.8 0.2 -0.00531649 -2.47713 24.5034
1050 1 0.85 0.15 -0.00531649 -2.47713 24.5034
1051 1 0.85 0.25 -0.00531649 -2.47713 24.5034
1171 1 0.866667 0.2 0.0603089 -2.83183 0.00509945
1172 1 0.9 0.2 -0.00531649 -2.47713 24.5034
1173 1 0.916667 0.15 0.0603089 -2.83183 0.00509945
1174 1 0.916667 0.25 0.0603089 -2.83183 0.00509945
1177 1 0.95 0.15 -0.00531649 -2.47713 24.5034
1203 1 0.95 0.25 -0.00531649 -2.47713 24.5034
1295 1 0.966667 0.2 0.0603089 -2.83183 0.00509945
6 1 0 0.3 -0.00531649 -2.47713 24.5034
8 1 0.0166667 0.35 0.0603089 -2.83183 0.00509945
15 1 0 0.4 -0.00531649 -2.47713 24.5034
16 1 0.05 0.35 -0.00531649 -2.47713 24.5034
59 1 0.0666667 0.3 0.0603089 -2.83183 0.00509945
80 1 0.0666667 0.4 0.0603089 -2.83183 0.00509945
81 1 0.1 0.4 -0.00531649 -2.47713 24.5034
82 1 0.116667 0.35 0.0603089 -2.83183 0.00509945
84 1 0.1 0.3 -0.00531649 -2.47713 24.5034
86 1 0.15 0.35 -0.00531649 -2.47713 24.5034
202 1 0.166667 0.4 0.0603089 -2.83183 0.00509945
205 1 0.166667 0.3 0.0603089 -2.83183 0.00509945
206 1 0.2 0.3 -0.00531649 -2.47713 24.5034
208 1 0.216667 0.35 0.0603089 -2.83183 0.00509945
233 1 0.2 0.4 -0.00531649 -2.47713 24.5034
234 1 0.25 0.35 -0.00531649 -2.47713 24.5034
328 1 0.266667 0.3 0.0603089 -2.83183 0.00509945
358 1 0.266667 0.4 0.0603089 -2.83183 0.00509945
359 1 0.3 0.4 -0.00531649 -2.47713 24.5034
360 1 0.316667 0.35 0.0603089 -2.83183 0.00509945
362 1 0.3 0.3 -0.00531649 -2.47713 24.5034
364 1 0.35 0.35 -0.00531649 -2.47713 24.5034
482 1 0.366667 0.4 0.0603089 -2.83183 0.00509945
485 1 0.366667 0.3 0.0603089 -2.83183 0.00509945
486 1 0.4 0.3 -0.00531649 -2.47713 24.5034
488 1 0.416667 0.35 0.0603089 -2.83183 0.00509945
513 1 0.4 0.4 -0.00531649 -2.47713 24.5034
514 1 0.45 0.35 -0.00531649 -2.47713 24.5034
608 1 0.466667 0.3 0.0603089 -2.83183 0.00509945
638 1 0.466667 0.4 0.0603089 -2.83183 0.00509945
639 1 0.5 0.4 -0.00531649 -2.47713 24.5034
642 1 0.5 0.3 -0.00531649 -2.47713 24.5034
640 1 0.516667 0.35 0.0603089 -2.83183 0.00509945
644 1 0.55 0.35 -0.00531649 -2.47713 24.5034
762 1 0.566667 0.4 0.0603089 -2.83183 0.00509945
765 1 0.566667 0.3 0.0603089 -2.83183 0.00509945
766 1 0.6 0.3 -0.00531649 -2.47713 24.5034
768 1 0.616667 0.35 0.0603089 -2.83183 0.00509945
793 1 0.6 0.4 -0.00531649 -2.47713 24.5034
794 1 0.65 0.35 -0.00531649 -2.47713 24.5034
888 1 0.666667 0.3 0.0603089 -2.83183 0.00509945
918 1 0.666667 0.4 0.0603089 -2.83183 0.00509945
919 1 0.7 0.4 -0.00531649 -2.47713 24.5034
920 1 0.716667 0.35 0.0603089 -2.83183 0.00509945
922 1 0.7 0.3 -0.00531649 -2.47713 24.5034
924 1 0.75 0.35 -0.00531649 -2.47713 24.5034
1042 1 0.766667 0.4 0.0603089 -2.83183 0.00509945
1045 1 0.766667 0.3 0.0603089 -2.83183 0.00509945
1046 1 0.8 0.3 -0.00531649 -2.47713 24.5034
1048 1 0.816667 0.35 0.0603089 -2.83183 0.00509945
1073 1 0.8 0.4 -0.00531649 -2.47713 24.5034
1074 1 0.85 0.35 -0.00531649 -2.47713 24.5034
1168 1 0.866667 0.3 0.0603089 -2.83183 0.00509945
1198 1 0.866667 0.4 0.0603089 -2.83183 0.00509945
1199 1 0.9 0.4 -0.00531649 -2.47713 24.5034
1200 1 0.916667 0.35 0.0603089 -2.83183 0.00509945
1202 1 0.9 0.3 -0.00531649 -2.47713 24.5034
1204 1 0.95 0.35 -0.00531649 -2.47713 24.5034
1317 1 0.966667 0.4 0.0603089 -2.83183 0.00509945
1320 1 0.966667 0.3 0.0603089 -2.83183 0.00509945
12 1 0 0.5 -0.00531649 -2.47713 24.5034
13 1 0.0166667 0.45 0.0603089 -2.83183 0.00509945
14 1 0.0166667 0.55 0.0603089 -2.83183 0.00509945
17 1 0.05 0.45 -0.00531649 -2.47713 24.5034
22 1 0.05 0.55 -0.00531649 -2.47713 24.5034
77 1 0.0666667 0.5 0.0603089 -2.83183 0.00509945
83 1 0.116667 0.45 0.0603089 -2.83183 0.00509945
100 1 0.116667 0.55 0.0603089 -2.83183 0.00509945
102 1 0.1 0.5 -0.00531649 -2.47713 24.5034
103 1 0.15 0.45 -0.00531649 -2.47713 24.5034
104 1 0.15 0.55 -0.00531649 -2.47713 24.5034
229 1 0.166667 0.5 0.0603089 -2.83183 0.00509945
230 1 0.2 0.5 -0.00531649 -2.47713 24.5034
231 1 0.216667 0.45 0.0603089 -2.83183 0.00509945
232 1 0.216667 0.55 0.0603089 -2.83183 0.00509945
235 1 0.25 0.45 -0.00531649 -2.47713 24.5034
250 1 0.25 0.55 -0.00531649 -2.47713 24.5034
355 1 0.266667 0.5 0.0603089 -2.83183 0.00509945
361 1 0.316667 0.45 0.0603089 -2.83183 0.00509945
380 1 0.316667 0.55 0.0603089 -2.83183 0.00509945
382 1 0.3 0.5 -0.00531649 -2.47713 24.5034
383 1 0.35 0.45 -0.00531649 -2.47713 24.5034
384 1 0.35 0.55 -0.00531649 -2.47713 24.5034
509 1 0.366667 0.5 0.0603089 -2.83183 0.00509945
510 1 0.4 0.5 -0.00531649 -2.47713 24.5034
511 1 0.416667 0.45 0.0603089 -2.83183 0.00509945
512 1 0.416667 0.55 0.0603089 -2.83183 0.00509945
515 1 0.45 0.45 -0.00531649 -2.47713 24.5034
530 1 0.45 0.55 -0.00531649 -2.47713 24.5034
635 1 0.466667 0.5 0.0603089 -2.83183 0.00509945
662 1 0.5 0.5 -0.00531649 -2.47713 24.5034
641 1 0.516667 0.45 0.0603089 -2.83183 0.00509945
660 1 0.516667 0.55 0.0603089 -2.83183 0.00509945
663 1 0.55 0.45 -0.00531649 -2.47713 24.5034
664 1 0.55 0.55 -0.00531649 -2.47713 24.5034
789 1 0.566667 0.5 0.0603089 -2.83183 0.00509945
790 1 0.6 0.5 -0.00531649 -2.47713 24.5034
791 1 0.616667 0.45 0.0603089 -2.83183 0.00509945
792 1 0.616667 0.55 0.0603089 -2.83183 0.00509945
795 1 0.65 0.45 -0.00531649 -2.47713 24.5034
810 1 0.65 0.55 -0.00531649 -2.47713 24.5034
915 1 0.666667 0.5 0.0603089 -2.83183 0.00509945
921 1 0.716667 0.45 0.0603089 -2.83183 0.00509945
940 1 0.716667 0.55 0.0603089 -2.83183 0.00509945
942 1 0.7 0.5 -0.00531649 -2.47713 24.5034
943 1 0.75 0.45 -0.00531649 -2.47713 24.5034
944 1 0.75 0.55 -0.00531649 -2.47713 24.5034
1069 1 0.766667 0.5 0.0603089 -2.83183 0.00509945
1070 1 0.8 0.5 -0.00531649 -2.47713 24.5034
1071 1 0.816667 0.45 0.0603089 -2.83183 0.00509945
1072 1 0.816667 0.55 0.0603089 -2.83183 0.00509945
1075 1 0.85 0.45 -0.00531649 -2.47713 24.5034
1090 1 0.85 0.55 -0.00531649 -2.47713 24.5034
1195 1 0.866667 0.5 0.0603089 -2.83183 0.00509945
1201 1 0.916667 0.45 0.0603089 -2.83183 0.00509945
1220 1 0.916667 0.55 0.0603089 -2.83183 0.00509945
1222 1 0.9 0.5 -0.00531649 -2.47713 24.5034
1223 1 0.95 0.45 -0.00531649 -2.47713 24.5034
1224 1 0.95 0.55 -0.00531649 -2.47713 24.5034
1338 1 0.966667 0.5 0.0603089 -2.83183 0.00509945
18 1 0 0.7 -0.00531649 -2.47713 24.5034
19 1 0.0166667 0.65 0.0603089 -2.83183 0.00509945
21 1 0 0.6 -0.00531649 -2.47713 24.5034
23 1 0.05 0.65 -0.00531649 -2.47713 24.5034
95 1 0.0666667 0.7 0.0603089 -2.83183 0.00509945
98 1 0.0666667 0.6 0.0603089 -2.83183 0.00509945
99 1 0.1 0.6 -0.00531649 -2.47713 24.5034
101 1 0.116667 0.65 0.0603089 -2.83183 0.00509945
114 1 0.1 0.7 -0.00531649 -2.47713 24.5034
115 1 0.15 0.65 -0.00531649 -2.47713 24.5034
226 1 0.166667 0.6 0.0603089 -2.83183 0.00509945
245 1 0.166667 0.7 0.0603089 -2.83183 0.00509945
246 1 0.2 0.7 -0.00531649 -2.47713 24.5034
247 1 0.216667 0.65 0.0603089 -2.83183 0.00509945
249 1 0.2 0.6 -0.00531649 -2.47713 24.5034
251 1 0.25 0.65 -0.00531649 -2.47713 24.5034
375 1 0.266667 0.7 0.0603089 -2.83183 0.00509945
378 1 0.266667 0.6 0.0603089 -2.83183 0.00509945
379 1 0.3 0.6 -0.00531649 -2.47713 24.5034
381 1 0.316667 0.65 0.0603089 -2.83183 0.00509945
394 1 0.3 0.7 -0.00531649 -2.47713 24.5034
395 1 0.35 0.65 -0.00531649 -2.47713 24.5034
506 1 0.366667 0.6 0.0603089 -2.83183 0.00509945
525 1 0.366667 0.7 0.0603089 -2.83183 0.00509945
526 1 0.4 0.7 -0.00531649 -2.47713 24.5034
527 1 0.416667 0.65 0.0603089 -2.83183 0.00509945
529 1 0.4 0.6 -0.00531649 -2.47713 24.5034
531 1 0.45 0.65 -0.00531649 -2.47713 24.5034
655 1 0.466667 0.7 0.0603089 -2.83183 0.00509945
658 1 0.466667 0.6 0.0603089 -2.83183 0.00509945
659 1 0.5 0.6 -0.00531649 -2.47713 24.5034
674 1 0.5 0.7 -0.00531649 -2.47713 24.5034
661 1 0.516667 0.65 0.0603089 -2.83183 0.00509945
675 1 0.55 0.65 -0.00531649 -2.47713 24.5034
786 1 0.566667 0.6 0.0603089 -2.83183 0.00509945
805 1 0.566667 0.7 0.0603089 -2.83183 0.00509945
806 1 0.6 0.7 -0.00531649 -2.47713 24.5034
807 1 0.616667 0.65 0.0603089 -2.83183 0.00509945
809 1 0.6 0.6 -0.00531649 -2.47713 24.5034
811 1 0.65 0.65 -0.00531649 -2.47713 24.5034
935 1 0.666667 0.7 0.0603089 -2.83183 0.00509945
938 1 0.666667 0.6 0.0603089 -2.83183 0.00509945
939 1 0.7 0.6 -0.00531649 -2.47713 24.5034
941 1 0.716667 0.65 0.0603089 -2.83183 0.00509945
954 1 0.7 0.7 -0.00531649 -2.47713 24.5034
955 1 0.75 0.65 -0.00531649 -2.47713 24.5034
1066 1 0.766667 0.6 0.0603089 -2.83183 0.00509945
1085 1 0.766667 0.7 0.0603089 -2.83183 0.00509945
1086 1 0.8 0.7 -0.00531649 -2.47713 24.5034
1087 1 0.816667 0.65 0.0603089 -2.83183 0.00509945
1089 1 0.8 0.6 -0.00531649 -2.47713 24.5034
1091 1 0.85 0.65 -0.00531649 -2.47713 24.5034
1215 1 0.866667 0.7 0.0603089 -2.83183 0.00509945
1218 1 0.866667 0.6 0.0603089 -2.83183 0.00509945
1219 1 0.9 0.6 -0.00531649 -2.47713 24.5034
1221 1 0.916667 0.65 0.0603089 -2.83183 0.00509945
1234 1 0.9 0.7 -0.00531649 -2.47713 24.5034
1235 1 0.95 0.65 -0.00531649 -2.47713 24.5034
1335 1 0.966667 0.6 0.0603089 -2.83183 0.00509945
1348 1 0.966667 0.7 0.0603089 -2.83183 0.00509945
20 1 0.0166667 0.75 0.0603089 -2.83183 0.00509945
25 1 0.0166667 0.85 0.0603089 -2.83183 0.00509945
27 1 0 0.8 -0.00531649 -2.47713 24.5034
28 1 0.05 0.75 -0.00531649 -2.47713 24.5034
29 1 0.05 0.85 -0.00531649 -2.47713 24.5034
110 1 0.0666667 0.8 0.0603089 -2.83183 0.00509945
111 1 0.1 0.8 -0.00531649 -2.47713 24.5034
112 1 0.116667 0.75 0.0603089 -2.83183 0.00509945
113 1 0.116667 0.85 0.0603089 -2.83183 0.00509945
116 1 0.15 0.75 -0.00531649 -2.47713 24.5034
119 1 0.15 0.85 -0.00531649 -2.47713 24.5034
242 1 0.166667 0.8 0.0603089 -2.83183 0.00509945
248 1 0.216667 0.75 0.0603089 -2.83183 0.00509945
255 1 0.216667 0.85 0.0603089 -2.83183 0.00509945
257 1 0.2 0.8 -0.00531649 -2.47713 24.5034
258 1 0.25 0.75 -0.00531649 -2.47713 24.5034
259 1 0.25 0.85 -0.00531649 -2.47713 24.5034
390 1 0.266667 0.8 0.0603089 -2.83183 0.00509945
391 1 0.3 0.8 -0.00531649 -2.47713 24.5034
392 1 0.316667 0.75 0.0603089 -2.83183 0.00509945
393 1 0.316667 0.85 0.0603089 -2.83183 0.00509945
396 1 0.35 0.75 -0.00531649 -2.47713 24.5034
399 1 0.35 0.85 -0.00531649 -2.47713 24.5034
522 1 0.366667 0.8 0.0603089 -2.83183 0.00509945
528 1 0.416667 0.75 0.0603089 -2.83183 0.00509945
535 1 0.416667 0.85 0.0603089 -2.83183 0.00509945
537 1 0.4 0.8 -0.00531649 -2.47713 24.5034
538 1 0.45 0.75 -0.00531649 -2.47713 24.5034
539 1 0.45 0.85 -0.00531649 -2.47713 24.5034
670 1 0.466667 0.8 0.0603089 -2.83183 0.00509945
671 1 0.5 0.8 -0.00531649 -2.47713 24.5034
672 1 0.516667 0.75 0.0603089 -2.83183 0.00509945
673 1 0.516667 0.85 0.0603089 -2.83183 0.00509945
676 1 0.55 0.75 -0.00531649 -2.47713 24.5034
679 1 0.55 0.85 -0.00531649 -2.47713 24.5034
802 1 0.566667 0.8 0.0603089 -2.83183 0.00509945
808 1 0.616667 0.75 0.0603089 -2.83183 0.00509945
815 1 0.616667 0.85 0.0603089 -2.83183 0.00509945
817 1 0.6 0.8 -0.00531649 -2.47713 24.5034
818 1 0.65 0.75 -0.00531649 -2.47713 24.5034
819 1 0.65 0.85 -0.00531649 -2.47713 24.5034
950 1 0.666667 0.8 0.0603089 -2.83183 0.00509945
951 1 0.7 0.8 -0.00531649 -2.47713 24.5034
952 1 0.716667 0.75 0.0603089 -2.83183 0.00509945
953 1 0.716667 0.85 0.0603089 -2.83183 0.00509945
956 1 0.75 0.75 -0.00531649 -2.47713 24.5034
959 1 0.75 0.85 -0.00531649 -2.47713 24.5034
1082 1 0.766667 0.8 0.0603089 -2.83183 0.00509945
1088 1 0.816667 0.75 0.0603089 -2.83183 0.00509945
1095 1 0.816667 0.85 0.0603089 -2.83183 0.00509945
1097 1 0.8 0.8 -0.00531649 -2.47713 24.5034
1098 1 0.85 0.75 -0.00531649 -2.47713 24.5034
1099 1 0.85 0.85 -0.00531649 -2.47713 24.5034
1230 1 0.866667 0.8 0.0603089 -2.83183 0.00509945
1231 1 0.9 0.8 -0.00531649 -2.47713 24.5034
1232 1 0.916667 0.75 0.0603089 -2.83183 0.00509945
1233 1 0.916667 0.85 0.0603089 -2.83183 0.00509945
1236 1 0.95 0.75 -0.00531649 -2.47713 24.5034
1239 1 0.95 0.85 -0.00531649 -2.47713 24.5034
1345 1 0.966667 0.8 0.0603089 -2.83183 0.00509945
24 1 0 0.9 -0.00531649 -2.47713 24.5034
26 1 0.0166667 0.95 0.0603089 -2.83183 0.00509945
30 1 0.05 0.95 -0.00531649 -2.47713 24.5034
107 1 0.0666667 0.9 0.0603089 -2.83183 0.00509945
117 1 0.116667 0.95 0.0603089 -2.83183 0.00509945
118 1 0.1 0.9 -0.00531649 -2.47713 24.5034
120 1 0.15 0.95 -0.00531649 -2.47713 24.5034
253 1 0.166667 0.9 0.0603089 -2.83183 0.00509945
254 1 0.2 0.9 -0.00531649 -2.47713 24.5034
256 1 0.216667 0.95 0.0603089 -2.83183 0.00509945
260 1 0.25 0.95 -0.00531649 -2.47713 24.5034
387 1 0.266667 0.9 0.0603089 -2.83183 0.00509945
397 1 0.316667 0.95 0.0603089 -2.83183 0.00509945
398 1 0.3 0.9 -0.00531649 -2.47713 24.5034
400 1 0.35 0.95 -0.00531649 -2.47713 24.5034
533 1 0.366667 0.9 0.0603089 -2.83183 0.00509945
534 1 0.4 0.9 -0.00531649 -2.47713 24.5034
536 1 0.416667 0.95 0.0603089 -2.83183 0.00509945
540 1 0.45 0.95 -0.00531649 -2.47713 24.5034
667 1 0.466667 0.9 0.0603089 -2.83183 0.00509945
678 1 0.5 0.9 -0.00531649 -2.47713 24.5034
677 1 0.516667 0.95 0.0603089 -2.83183 0.00509945
680 1 0.55 0.95 -0.00531649 -2.47713 24.5034
813 1 0.566667 0.9 0.0603089 -2.83183 0.00509945
814 1 0.6 0.9 -0.00531649 -2.47713 24.5034
816 1 0.616667 0.95 0.0603089 -2.83183 0.00509945
820 1 0.65 0.95 -0.00531649 -2.47713 24.5034
947 1 0.666667 0.9 0.0603089 -2.83183 0.00509945
957 1 0.716667 0.95 0.0603089 -2.83183 0.00509945
958 1 0.7 0.9 -0.00531649 -2.47713 24.5034
960 1 0.75 0.95 -0.00531649 -2.47713 24.5034
1093 1 0.766667 0.9 0.0603089 -2.83183 0.00509945
1094 1 0.8 0.9 -0.00531649 -2.47713 24.5034
1096 1 0.816667 0.95 0.0603089 -2.83183 0.00509945
1100 1 0.85 0.95 -0.00531649 -2.47713 24.5034
1227 1 0.866667 0.9 0.0603089 -2.83183 0.00509945
1237 1 0.916667 0.95 0.0603089 -2.83183 0.00509945
1238 1 0.9 0.9 -0.00531649 -2.47713 24.5034
1240 1 0.95 0.95 -0.00531649 -2.47713 24.5034
1350 1 0.966667 0.9 0.0603089 -2.83183 0.00509945
31 1 0 0.1 0.193909 -2.85007 3.39029e-07
34 1 0 0 0.193909 -2.85007 3.39029e-07
35 1 0.0333333 0 0.127101 -2.8512 1.05471e-06
36 1 0.05 0.05 0.193909 -2.85007 3.39029e-07
44 1 0.0333333 0.1 0.127101 -2.8512 1.05471e-06
46 1 0.0833333 0.05 0.127101 -2.8512 1.05471e-06
135 1 0.1 0 0.193909 -2.85007 3.39029e-07
150 1 0.1 0.1 0.193909 -2.85007 3.39029e-07
151 1 0.133333 0.1 0.127101 -2.8512 1.05471e-06
152 1 0.15 0.05 0.193909 -2.85007 3.39029e-07
154 1 0.133333 0 0.127101 -2.8512 1.05471e-06
156 1 0.183333 0.05 0.127101 -2.8512 1.05471e-06
280 1 0.2 0.1 0.193909 -2.85007 3.39029e-07
283 1 0.2 0 0.193909 -2.85007 3.39029e-07
284 1 0.233333 0 0.127101 -2.8512 1.05471e-06
285 1 0.25 0.05 0.193909 -2.85007 3.39029e-07
303 1 0.233333 0.1 0.127101 -2.8512 1.05471e-06
305 1 0.283333 0.05 0.127101 -2.8512 1.05471e-06
415 1 0.3 0 0.193909 -2.85007 3.39029e-07
430 1 0.3 0.1 0.193909 -2.85007 3.39029e-07
431 1 0.333333 0.1 0.127101 -2.8512 1.05471e-06
434 1 0.333333 0 0.127101 -2.8512 1.05471e-06
432 1 0.35 0.05 0.193909 -2.85007 3.39029e-07
436 1 0.383333 0.05 0.127101 -2.8512 1.05471e-06
560 1 0.4 0.1 0.193909 -2.85007 3.39029e-07
563 1 0.4 0 0.193909 -2.85007 3.39029e-07
564 1 0.433333 0 0.127101 -2.8512 1.05471e-06
565 1 0.45 0.05 0.193909 -2.85007 3.39029e-07
583 1 0.433333 0.1 0.127101 -2.8512 1.05471e-06
585 1 0.483333 0.05 0.127101 -2.8512 1.05471e-06
695 1 0.5 0 0.193909 -2.85007 3.39029e-07
710 1 0.5 0.1 0.193909 -2.85007 3.39029e-07
711 1 0.533333 0.1 0.127101 -2.8512 1.05471e-06
712 1 0.55 0.05 0.193909 -2.85007 3.39029e-07
714 1 0.533333 0 0.127101 -2.8512 1.05471e-06
716 1 0.583333 0.05 0.127101 -2.8512 1.05471e-06
840 1 0.6 0.1 0.193909 -2.85007 3.39029e-07
843 1 0.6 0 0.193909 -2.85007 3.39029e-07
844 1 0.633333 0 0.127101 -2.8512 1.05471e-06
845 1 0.65 0.05 0.193909 -2.85007 3.39029e-07
863 1 0.633333 0.1 0.127101 -2.8512 1.05471e-06
865 1 0.683333 0.05 0.127101 -2.8512 1.05471e-06
975 1 0.7 0 0.193909 -2.85007 3.39029e-07
990 1 0.7 0.1 0.193909 -2.85007 3.39029e-07
991 1 0.733333 0.1 0.127101 -2.8512 1.05471e-06
992 1 0.75 0.05 0.193909 -2.85007 3.39029e-07
994 1 0.733333 0 0.127101 -2.8512 1.05471e-06
996 1 0.783333 0.05 0.127101 -2.8512 1.05471e-06
1120 1 0.8 0.1 0.193909 -2.85007 3.39029e-07
1123 1 0.8 0 0.193909 -2.85007 3.39029e-07
1124 1 0.833333 0 0.127101 -2.8512 1.05471e-06
1143 1 0.833333 0.1 0.127101 -2.8512 1.05471e-06
1125 1 0.85 0.05 0.193909 -2.85007 3.39029e-07
1145 1 0.883333 0.05 0.127101 -2.8512 1.05471e-06
1255 1 0.9 0 0.193909 -2.85007 3.39029e-07
1270 1 0.9 0.1 0.193909 -2.85007 3.39029e-07
1271 1 0.933333 0.1 0.127101 -2.8512 1.05471e-06
1272 1 0.95 0.05 0.193909 -2.85007 3.39029e-07
1274 1 0.933333 0 0.127101 -2.8512 1.05471e-06
1276 1 0.983333 0.05 0.127101 -2.8512 1.05471e-06
40 1 0 0.2 0.193909 -2.85007 3.39029e-07
41 1 0.0333333 0.2 0.127101 -2.8512 1.05471e-06
42 1 0.05 0.15 0.193909 -2.85007 3.39029e-07
43 1 0.05 0.25 0.193909 -2.85007 3.39029e-07
47 1 0.0833333 0.15 0.127101 -2.8512 1.05471e-06
60 1 0.0833333 0.25 0.127101 -2.8512 1.05471e-06
147 1 0.1 0.2 0.193909 -2.85007 3.39029e-07
153 1 0.15 0.15 0.193909 -2.85007 3.39029e-07
172 1 0.15 0.25 0.193909 -2.85007 3.39029e-07
174 1 0.133333 0.2 0.127101 -2.8512 1.05471e-06
176 1 0.183333 0.15 0.127101 -2.8512 1.05471e-06
177 1 0.183333 0.25 0.127101 -2.8512 1.05471e-06
299 1 0.2 0.2 0.193909 -2.85007 3.39029e-07
300 1 0.233333 0.2 0.127101 -2.8512 1.05471e-06
301 1 0.25 0.15 0.193909 -2.85007 3.39029e-07
302 1 0.25 0.25 0.193909 -2.85007 3.39029e-07
306 1 0.283333 0.15 0.127101 -2.8512 1.05471e-06
329 1 0.283333 0.25 0.127101 -2.8512 1.05471e-06
427 1 0.3 0.2 0.193909 -2.85007 3.39029e-07
454 1 0.333333 0.2 0.127101 -2.8512 1.05471e-06
433 1 0.35 0.15 0.193909 -2.85007 3.39029e-07
452 1 0.35 0.25 0.193909 -2.85007 3.39029e-07
456 1 0.383333 0.15 0.127101 -2.8512 1.05471e-06
457 1 0.383333 0.25 0.127101 -2.8512 1.05471e-06
579 1 0.4 0.2 0.193909 -2.85007 3.39029e-07
580 1 0.433333 0.2 0.127101 -2.8512 1.05471e-06
581 1 0.45 0.15 0.193909 -2.85007 3.39029e-07
582 1 0.45 0.25 0.193909 -2.85007 3.39029e-07
586 1 0.483333 0.15 0.127101 -2.8512 1.05471e-06
609 1 0.483333 0.25 0.127101 -2.8512 1.05471e-06
707 1 0.5 0.2 0.193909 -2.85007 3.39029e-07
713 1 0.55 0.15 0.193909 -2.85007 3.39029e-07
732 1 0.55 0.25 0.193909 -2.85007 3.39029e-07
734 1 0.533333 0.2 0.127101 -2.8512 1.05471e-06
736 1 0.583333 0.15 0.127101 -2.8512 1.05471e-06
737 1 0.583333 0.25 0.127101 -2.8512 1.05471e-06
859 1 0.6 0.2 0.193909 -2.85007 3.39029e-07
860 1 0.633333 0.2 0.127101 -2.8512 1.05471e-06
861 1 0.65 0.15 0.193909 -2.85007 3.39029e-07
862 1 0.65 0.25 0.193909 -2.85007 3.39029e-07
866 1 0.683333 0.15 0.127101 -2.8512 1.05471e-06
889 1 0.683333 0.25 0.127101 -2.8512 1.05471e-06
987 1 0.7 0.2 0.193909 -2.85007 3.39029e-07
993 1 0.75 0.15 0.193909 -2.85007 3.39029e-07
1012 1 0.75 0.25 0.193909 -2.85007 3.39029e-07
1014 1 0.733333 0.2 0.127101 -2.8512 1.05471e-06
1016 1 0.783333 0.15 0.127101 -2.8512 1.05471e-06
1017 1 0.783333 0.25 0.127101 -2.8512 1.05471e-06
1139 1 0.8 0.2 0.193909 -2.85007 3.39029e-07
1140 1 0.833333 0.2 0.127101 -2.8512 1.05471e-06
1141 1 0.85 0.15 0.193909 -2.85007 3.39029e-07
1142 1 0.85 0.25 0.193909 -2.85007 3.39029e-07
1146 1 0.883333 0.15 0.127101 -2.8512 1.05471e-06
1169 1 0.883333 0.25 0.127101 -2.8512 1.05471e-06
1267 1 0.9 0.2 0.193909 -2.85007 3.39029e-07
1273 1 0.95 0.15 0.193909 -2.85007 3.39029e-07
1292 1 0.95 0.25 0.193909 -2.85007 3.39029e-07
1294 1 0.933333 0.2 0.127101 -2.8512 1.05471e-06
1296 1 0.983333 0.15 0.127101 -2.8512 1.05471e-06
1297 1 0.983333 0.25 0.127101 -2.8512 1.05471e-06
37 1 0 0.3 0.193909 -2.85007 3.39029e-07
54 1 8.86546e-18 0.4 0.193909 -2.85007 3.39029e-07
55 1 0.0333333 0.4 0.127101 -2.8512 1.05471e-06
56 1 0.05 0.35 0.193909 -2.85007 3.39029e-07
58 1 0.0333333 0.3 0.127101 -2.8512 1.05471e-06
61 1 0.0833333 0.35 0.127101 -2.8512 1.05471e-06
167 1 0.1 0.4 0.193909 -2.85007 3.39029e-07
170 1 0.1 0.3 0.193909 -2.85007 3.39029e-07
171 1 0.133333 0.3 0.127101 -2.8512 1.05471e-06
173 1 0.15 0.35 0.193909 -2.85007 3.39029e-07
201 1 0.133333 0.4 0.127101 -2.8512 1.05471e-06
203 1 0.183333 0.35 0.127101 -2.8512 1.05471e-06
296 1 0.2 0.3 0.193909 -2.85007 3.39029e-07
323 1 0.2 0.4 0.193909 -2.85007 3.39029e-07
324 1 0.233333 0.4 0.127101 -2.8512 1.05471e-06
325 1 0.25 0.35 0.193909 -2.85007 3.39029e-07
327 1 0.233333 0.3 0.127101 -2.8512 1.05471e-06
330 1 0.283333 0.35 0.127101 -2.8512 1.05471e-06
447 1 0.3 0.4 0.193909 -2.85007 3.39029e-07
450 1 0.3 0.3 0.193909 -2.85007 3.39029e-07
451 1 0.333333 0.3 0.127101 -2.8512 1.05471e-06
481 1 0.333333 0.4 0.127101 -2.8512 1.05471e-06
453 1 0.35 0.35 0.193909 -2.85007 3.39029e-07
483 1 0.383333 0.35 0.127101 -2.8512 1.05471e-06
576 1 0.4 0.3 0.193909 -2.85007 3.39029e-07
603 1 0.4 0.4 0.193909 -2.85007 3.39029e-07
604 1 0.433333 0.4 0.127101 -2.8512 1.05471e-06
605 1 0.45 0.35 0.193909 -2.85007 3.39029e-07
607 1 0.433333 0.3 0.127101 -2.8512 1.05471e-06
610 1 0.483333 0.35 0.127101 -2.8512 1.05471e-06
727 1 0.5 0.4 0.193909 -2.85007 3.39029e-07
730 1 0.5 0.3 0.193909 -2.85007 3.39029e-07
731 1 0.533333 0.3 0.127101 -2.8512 1.05471e-06
733 1 0.55 0.35 0.193909 -2.85007 3.39029e-07
761 1 0.533333 0.4 0.127101 -2.8512 1.05471e-06
763 1 0.583333 0.35 0.127101 -2.8512 1.05471e-06
856 1 0.6 0.3 0.193909 -2.85007 3.39029e-07
883 1 0.6 0.4 0.193909 -2.85007 3.39029e-07
884 1 0.633333 0.4 0.127101 -2.8512 1.05471e-06
885 1 0.65 0.35 0.193909 -2.85007 3.39029e-07
887 1 0.633333 0.3 0.127101 -2.8512 1.05471e-06
890 1 0.683333 0.35 0.127101 -2.8512 1.05471e-06
1007 1 0.7 0.4 0.193909 -2.85007 3.39029e-07
1010 1 0.7 0.3 0.193909 -2.85007 3.39029e-07
1011 1 0.733333 0.3 0.127101 -2.8512 1.05471e-06
1013 1 0.75 0.35 0.193909 -2.85007 3.39029e-07
1041 1 0.733333 0.4 0.127101 -2.8512 1.05471e-06
1043 1 0.783333 0.35 0.127101 -2.8512 1.05471e-06
1136 1 0.8 0.3 0.193909 -2.85007 3.39029e-07
1163 1 0.8 0.4 0.193909 -2.85007 3.39029e-07
1164 1 0.833333 0.4 0.127101 -2.8512 1.05471e-06
1167 1 0.833333 0.3 0.127101 -2.8512 1.05471e-06
1165 1 0.85 0.35 0.193909 -2.85007 3.39029e-07
1170 1 0.883333 0.35 0.127101 -2.8512 1.05471e-06
1287 1 0.9 0.4 0.193909 -2.85007 3.39029e-07
1290 1 0.9 0.3 0.193909 -2.85007 3.39029e-07
1291 1 0.933333 0.3 0.127101 -2.8512 1.05471e-06
1293 1 0.95 0.35 0.193909 -2.85007 3.39029e-07
1316 1 0.933333 0.4 0.127101 -2.8512 1.05471e-06
1318 1 0.983333 0.35 0.127101 -2.8512 1.05471e-06
51 1 0 0.5 0.193909 -2.85007 3.39029e-07
57 1 0.05 0.45 0.193909 -2.85007 3.39029e-07
74 1 0.05 0.55 0.193909 -2.85007 3.39029e-07
76 1 0.0333333 0.5 0.127101 -2.8512 1.05471e-06
78 1 0.0833333 0.45 0.127101 -2.8512 1.05471e-06
79 1 0.0833333 0.55 0.127101 -2.8512 1.05471e-06
197 1 0.1 0.5 0.193909 -2.85007 3.39029e-07
198 1 0.133333 0.5 0.127101 -2.8512 1.05471e-06
199 1 0.15 0.45 0.193909 -2.85007 3.39029e-07
200 1 0.15 0.55 0.193909 -2.85007 3.39029e-07
204 1 0.183333 0.45 0.127101 -2.8512 1.05471e-06
227 1 0.183333 0.55 0.127101 -2.8512 1.05471e-06
320 1 0.2 0.5 0.193909 -2.85007 3.39029e-07
326 1 0.25 0.45 0.193909 -2.85007 3.39029e-07
352 1 0.25 0.55 0.193909 -2.85007 3.39029e-07
354 1 0.233333 0.5 0.127101 -2.8512 1.05471e-06
356 1 0.283333 0.45 0.127101 -2.8512 1.05471e-06
357 1 0.283333 0.55 0.127101 -2.8512 1.05471e-06
477 1 0.3 0.5 0.193909 -2.85007 3.39029e-07
478 1 0.333333 0.5 0.127101 -2.8512 1.05471e-06
479 1 0.35 0.45 0.193909 -2.85007 3.39029e-07
480 1 0.35 0.55 0.193909 -2.85007 3.39029e-07
484 1 0.383333 0.45 0.127101 -2.8512 1.05471e-06
507 1 0.383333 0.55 0.127101 -2.8512 1.05471e-06
600 1 0.4 0.5 0.193909 -2.85007 3.39029e-07
606 1 0.45 0.45 0.193909 -2.85007 3.39029e-07
632 1 0.45 0.55 0.193909 -2.85007 3.39029e-07
634 1 0.433333 0.5 0.127101 -2.8512 1.05471e-06
636 1 0.483333 0.45 0.127101 -2.8512 1.05471e-06
637 1 0.483333 0.55 0.127101 -2.8512 1.05471e-06
757 1 0.5 0.5 0.193909 -2.85007 3.39029e-07
758 1 0.533333 0.5 0.127101 -2.8512 1.05471e-06
759 1 0.55 0.45 0.193909 -2.85007 3.39029e-07
760 1 0.55 0.55 0.193909 -2.85007 3.39029e-07
764 1 0.583333 0.45 0.127101 -2.8512 1.05471e-06
787 1 0.583333 0.55 0.127101 -2.8512 1.05471e-06
880 1 0.6 0.5 0.193909 -2.85007 3.39029e-07
886 1 0.65 0.45 0.193909 -2.85007 3.39029e-07
912 1 0.65 0.55 0.193909 -2.85007 3.39029e-07
914 1 0.633333 0.5 0.127101 -2.8512 1.05471e-06
916 1 0.683333 0.45 0.127101 -2.8512 1.05471e-06
917 1 0.683333 0.55 0.127101 -2.8512 1.05471e-06
1037 1 0.7 0.5 0.193909 -2.85007 3.39029e-07
1038 1 0.733333 0.5 0.127101 -2.8512 1.05471e-06
1039 1 0.75 0.45 0.193909 -2.85007 3.39029e-07
1040 1 0.75 0.55 0.193909 -2.85007 3.39029e-07
1044 1 0.783333 0.45 0.127101 -2.8512 1.05471e-06
1067 1 0.783333 0.55 0.127101 -2.8512 1.05471e-06
1160 1 0.8 0.5 0.193909 -2.85007 3.39029e-07
1194 1 0.833333 0.5 0.127101 -2.8512 1.05471e-06
1166 1 0.85 0.45 0.193909 -2.85007 3.39029e-07
1192 1 0.85 0.55 0.193909 -2.85007 3.39029e-07
1196 1 0.883333 0.45 0.127101 -2.8512 1.05471e-06
1197 1 0.883333 0.55 0.127101 -2.8512 1.05471e-06
1312 1 0.9 0.5 0.193909 -2.85007 3.39029e-07
1313 1 0.933333 0.5 0.127101 -2.8512 1.05471e-06