ITEM: TIMESTEP
32
ITEM: NUMBER OF ATOMS
3200
ITEM: BOX BOUNDS pp pp ss
0.0000000000000000e+00 5.0092067021360698e+01
0.0000000000000000e+00 2.8920668379047399e+01
3.8451742731260487e-02 3.5381988531723906e+01
ITEM: ATOMS id type xs ys zs c_peratom c_csym
1 1 0 0.1 0.000103501 -2.4771 24.5084
2 1 0.0166667 0.05 0.0657392 -2.83187 0.00500583
4 1 0 0 0.000103501 -2.4771 24.5084
5 1 0.05 0.05 0.000103501 -2.4771 24.5084
45 1 0.0666667 0.1 0.0657392 -2.83187 0.00500583
48 1 0.0666667 0 0.0657392 -2.83187 0.00500583
49 1 0.1 0 0.000103501 -2.4771 24.5084
50 1 0.116667 0.05 0.0657392 -2.83187 0.00500583
66 1 0.1 0.1 0.000103501 -2.4771 24.5084
67 1 0.15 0.05 0.000103501 -2.4771 24.5084
155 1 0.166667 0 0.0657392 -2.83187 0.00500583
178 1 0.166667 0.1 0.0657392 -2.83187 0.00500583
179 1 0.2 0.1 0.000103501 -2.4771 24.5084
180 1 0.216667 0.05 0.0657392 -2.83187 0.00500583
182 1 0.2 0 0.000103501 -2.4771 24.5084
183 1 0.25 0.05 0.000103501 -2.4771 24.5084
304 1 0.266667 0.1 0.0657392 -2.83187 0.00500583
307 1 0.266667 0 0.0657392 -2.83187 0.00500583
308 1 0.3 0 0.000103501 -2.4771 24.5084
309 1 0.316667 0.05 0.0657392 -2.83187 0.00500583
335 1 0.3 0.1 0.000103501 -2.4771 24.5084
336 1 0.35 0.05 0.000103501 -2.4771 24.5084
435 1 0.366667 0 0.0657392 -2.83187 0.00500583
458 1 0.366667 0.1 0.0657392 -2.83187 0.00500583
459 1 0.4 0.1 0.000103501 -2.4771 24.5084
460 1 0.416667 0.05 0.0657392 -2.83187 0.00500583
462 1 0.4 0 0.000103501 -2.4771 24.5084
463 1 0.45 0.05 0.000103501 -2.4771 24.5084
584 1 0.466667 0.1 0.0657392 -2.83187 0.00500583
587 1 0.466667 0 0.0657392 -2.83187 0.00500583
588 1 0.5 0 0.000103501 -2.4771 24.5084
615 1 0.5 0.1 0.000103501 -2.4771 24.5084
589 1 0.516667 0.05 0.0657392 -2.83187 0.00500583
616 1 0.55 0.05 0.000103501 -2.4771 24.5084
715 1 0.566667 0 0.0657392 -2.83187 0.00500583
738 1 0.566667 0.1 0.0657392 -2.83187 0.00500583
739 1 0.6 0.1 0.000103501 -2.4771 24.5084
740 1 0.616667 0.05 0.0657392 -2.83187 0.00500583
742 1 0.6 0 0.000103501 -2.4771 24.5084
743 1 0.65 0.05 0.000103501 -2.4771 24.5084
864 1 0.666667 0.1 0.0657392 -2.83187 0.00500583
867 1 0.666667 0 0.0657392 -2.83187 0.00500583
868 1 0.7 0 0.000103501 -2.4771 24.5084
869 1 0.716667 0.05 0.0657392 -2.83187 0.00500583
895 1 0.7 0.1 0.000103501 -2.4771 24.5084
896 1 0.75 0.05 0.000103501 -2.4771 24.5084
995 1 0.766667 0 0.0657392 -2.83187 0.00500583
1018 1 0.766667 0.1 0.0657392 -2.83187 0.00500583
1019 1 0.8 0.1 0.000103501 -2.4771 24.5084
1020 1 0.816667 0.05 0.0657392 -2.83187 0.00500583
1022 1 0.8 0 0.000103501 -2.4771 24.5084
1023 1 0.85 0.05 0.000103501 -2.4771 24.5084
1144 1 0.866667 0.1 0.0657392 -2.83187 0.00500583
1147 1 0.866667 0 0.0657392 -2.83187 0.00500583
1148 1 0.9 0 0.000103501 -2.4771 24.5084
1149 1 0.916667 0.05 0.0657392 -2.83187 0.00500583
1175 1 0.9 0.1 0.000103501 -2.4771 24.5084
1176 1 0.95 0.05 0.000103501 -2.4771 24.5084
1275 1 0.966667 0 0.0657392 -2.83187 0.00500583
1298 1 0.966667 0.1 0.0657392 -2.83187 0.00500583
3 1 0.0166667 0.15 0.0657392 -2.83187 0.00500583
7 1 0.0166667 0.25 0.0657392 -2.83187 0.00500583
9 1 0 0.2 0.000103501 -2.4771 24.5084
10 1 0.05 0.15 0.000103501 -2.4771 24.5084
11 1 0.05 0.25 0.000103501 -2.4771 24.5084
62 1 0.0666667 0.2 0.0657392 -2.83187 0.00500583
63 1 0.1 0.2 0.000103501 -2.4771 24.5084
64 1 0.116667 0.15 0.0657392 -2.83187 0.00500583
65 1 0.116667 0.25 0.0657392 -2.83187 0.00500583
68 1 0.15 0.15 0.000103501 -2.4771 24.5084
85 1 0.15 0.25 0.000103501 -2.4771 24.5084
175 1 0.166667 0.2 0.0657392 -2.83187 0.00500583
181 1 0.216667 0.15 0.0657392 -2.83187 0.00500583
207 1 0.216667 0.25 0.0657392 -2.83187 0.00500583
209 1 0.2 0.2 0.000103501 -2.4771 24.5084
210 1 0.25 0.15 0.000103501 -2.4771 24.5084
211 1 0.25 0.25 0.000103501 -2.4771 24.5084
331 1 0.266667 0.2 0.0657392 -2.83187 0.00500583
332 1 0.3 0.2 0.000103501 -2.4771 24.5084
333 1 0.316667 0.15 0.0657392 -2.83187 0.00500583
334 1 0.316667 0.25 0.0657392 -2.83187 0.00500583
337 1 0.35 0.15 0.000103501 -2.4771 24.5084
363 1 0.35 0.25 0.000103501 -2.4771 24.5084
455 1 0.366667 0.2 0.0657392 -2.83187 0.00500583
461 1 0.416667 0.15 0.0657392 -2.83187 0.00500583
487 1 0.416667 0.25 0.0657392 -2.83187 0.00500583
489 1 0.4 0.2 0.000103501 -2.4771 24.5084
490 1 0.45 0.15 0.000103501 -2.4771 24.5084
491 1 0.45 0.25 0.000103501 -2.4771 24.5084
611 1 0.466667 0.2 0.0657392 -2.83187 0.00500583
612 1 0.5 0.2 0.000103501 -2.4771 24.5084
613 1 0.516667 0.15 0.0657392 -2.83187 0.00500583
614 1 0.516667 0.25 0.0657392 -2.83187 0.00500583
617 1 0.55 0.15 0.000103501 -2.4771 24.5084
643 1 0.55 0.25 0.000103501 -2.4771 24.5084
735 1 0.566667 0.2 0.0657392 -2.83187 0.00500583
741 1 0.616667 0.15 0.0657392 -2.83187 0.00500583
767 1 0.616667 0.25 0.0657392 -2.83187 0.00500583
769 1 0.6 0.2 0.000103501 -2.4771 24.5084
770 1 0.65 0.15 0.000103501 -2.4771 24.5084
771 1 0.65 0.25 0.000103501 -2.4771 24.5084
891 1 0.666667 0.2 0.0657392 -2.83187 0.00500583
892 1 0.7 0.2 0.000103501 -2.4771 24.5084
893 1 0.716667 0.15 0.0657392 -2.83187 0.00500583
894 1 0.716667 0.25 0.0657392 -2.83187 0.00500583
897 1 0.75 0.15 0.000103501 -2.4771 24.5084
923 1 0.75 0.25 0.000103501 -2.4771 24.5084
1015 1 0.766667 0.2 0.0657392 -2.83187 0.00500583
1021 1 0.816667 0.15 0.0657392 -2.83187 0.00500583
1047 1 0.816667 0.25 0.0657392 -2.83187 0.00500583
1049 1 0.8 0.2 0.000103501 -2.4771 24.5084
1050 1 0.85 0.15 0.000103501 -2.4771 24.5084
1051 1 0.85 0.25 0.000103501 -2.4771 24.5084
1171 1 0.866667 0.2 0.0657392 -2.83187 0.00500583
1172 1 0.9 0.2 0.000103501 -2.4771 24.5084
1173 1 0.916667 0.15 0.0657392 -2.83187 0.00500583
1174 1 0.916667 0.25 0.0657392 -2.83187 0.00500583
1177 1 0.95 0.15 0.000103501 -2.4771 24.5084
1203 1 0.95 0.25 0.000103501 -2.4771 24.5084
1295 1 0.966667 0.2 0.0657392 -2.83187 0.00500583
6 1 0 0.3 0.000103501 -2.4771 24.5084
8 1 0.0166667 0.35 0.0657392 -2.83187 0.00500583
15 1 0 0.4 0.000103501 -2.4771 24.5084
16 1 0.05 0.35 0.000103501 -2.4771 24.5084
59 1 0.0666667 0.3 0.0657392 -2.83187 0.00500583
80 1 0.0666667 0.4 0.0657392 -2.83187 0.00500583
81 1 0.1 0.4 0.000103501 -2.4771 24.5084
82 1 0.116667 0.35 0.0657392 -2.83187 0.00500583
84 1 0.1 0.3 0.000103501 -2.4771 24.5084
86 1 0.15 0.35 0.000103501 -2.4771 24.5084
202 1 0.166667 0.4 0.0657392 -2.83187 0.00500583
205 1 0.166667 0.3 0.0657392 -2.83187 0.00500583
206 1 0.2 0.3 0.000103501 -2.4771 24.5084
208 1 0.216667 0.35 0.0657392 -2.83187 0.00500583
233 1 0.2 0.4 0.000103501 -2.4771 24.5084
234 1 0.25 0.35 0.000103501 -2.4771 24.5084
328 1 0.266667 0.3 0.0657392 -2.83187 0.00500583
358 1 0.266667 0.4 0.0657392 -2.83187 0.00500583
359 1 0.3 0.4 0.000103501 -2.4771 24.5084
360 1 0.316667 0.35 0.0657392 -2.83187 0.00500583
362 1 0.3 0.3 0.000103501 -2.4771 24.5084
364 1 0.35 0.35 0.000103501 -2.4771 24.5084
482 1 0.366667 0.4 0.0657392 -2.83187 0.00500583
485 1 0.366667 0.3 0.0657392 -2.83187 0.00500583
486 1 0.4 0.3 0.000103501 -2.4771 24.5084
488 1 0.416667 0.35 0.0657392 -2.83187 0.00500583
513 1 0.4 0.4 0.000103501 -2.4771 24.5084
514 1 0.45 0.35 0.000103501 -2.4771 24.5084
608 1 0.466667 0.3 0.0657392 -2.83187 0.00500583
638 1 0.466667 0.4 0.0657392 -2.83187 0.00500583
639 1 0.5 0.4 0.000103501 -2.4771 24.5084
642 1 0.5 0.3 0.000103501 -2.4771 24.5084
640 1 0.516667 0.35 0.0657392 -2.83187 0.00500583
644 1 0.55 0.35 0.000103501 -2.4771 24.5084
762 1 0.566667 0.4 0.0657392 -2.83187 0.00500583
765 1 0.566667 0.3 0.0657392 -2.83187 0.00500583
766 1 0.6 0.3 0.000103501 -2.4771 24.5084
768 1 0.616667 0.35 0.0657392 -2.83187 0.00500583
793 1 0.6 0.4 0.000103501 -2.4771 24.5084
794 1 0.65 0.35 0.000103501 -2.4771 24.5084
888 1 0.666667 0.3 0.0657392 -2.83187 0.00500583
918 1 0.666667 0.4 0.0657392 -2.83187 0.00500583
919 1 0.7 0.4 0.000103501 -2.4771 24.5084
920 1 0.716667 0.35 0.0657392 -2.83187 0.00500583
922 1 0.7 0.3 0.000103501 -2.4771 24.5084
924 1 0.75 0.35 0.000103501 -2.4771 24.5084
1042 1 0.766667 0.4 0.0657392 -2.83187 0.00500583
1045 1 0.766667 0.3 0.0657392 -2.83187 0.00500583
1046 1 0.8 0.3 0.000103501 -2.4771 24.5084
1048 1 0.816667 0.35 0.0657392 -2.83187 0.00500583
1073 1 0.8 0.4 0.000103501 -2.4771 24.5084
1074 1 0.85 0.35 0.000103501 -2.4771 24.5084
1168 1 0.866667 0.3 0.0657392 -2.83187 0.00500583
1198 1 0.866667 0.4 0.0657392 -2.83187 0.00500583
1199 1 0.9 0.4 0.000103501 -2.4771 24.5084
1200 1 0.916667 0.35 0.0657392 -2.83187 0.00500583
1202 1 0.9 0.3 0.000103501 -2.4771 24.5084
1204 1 0.95 0.35 0.000103501 -2.4771 24.5084
1317 1 0.966667 0.4 0.0657392 -2.83187 0.00500583
1320 1 0.966667 0.3 0.0657392 -2.83187 0.00500583
12 1 0 0.5 0.000103501 -2.4771 24.5084
13 1 0.0166667 0.45 0.0657392 -2.83187 0.00500583
14 1 0.0166667 0.55 0.0657392 -2.83187 0.00500583
17 1 0.05 0.45 0.000103501 -2.4771 24.5084
22 1 0.05 0.55 0.000103501 -2.4771 24.5084
77 1 0.0666667 0.5 0.0657392 -2.83187 0.00500583
83 1 0.116667 0.45 0.0657392 -2.83187 0.00500583
100 1 0.116667 0.55 0.0657392 -2.83187 0.00500583
102 1 0.1 0.5 0.000103501 -2.4771 24.5084
103 1 0.15 0.45 0.000103501 -2.4771 24.5084
104 1 0.15 0.55 0.000103501 -2.4771 24.5084
229 1 0.166667 0.5 0.0657392 -2.83187 0.00500583
230 1 0.2 0.5 0.000103501 -2.4771 24.5084
231 1 0.216667 0.45 0.0657392 -2.83187 0.00500583
232 1 0.216667 0.55 0.0657392 -2.83187 0.00500583
235 1 0.25 0.45 0.000103501 -2.4771 24.5084
250 1 0.25 0.55 0.000103501 -2.4771 24.5084
355 1 0.266667 0.5 0.0657392 -2.83187 0.00500583
361 1 0.316667 0.45 0.0657392 -2.83187 0.00500583
380 1 0.316667 0.55 0.0657392 -2.83187 0.00500583
382 1 0.3 0.5 0.000103501 -2.4771 24.5084
383 1 0.35 0.45 0.000103501 -2.4771 24.5084
384 1 0.35 0.55 0.000103501 -2.4771 24.5084
509 1 0.366667 0.5 0.0657392 -2.83187 0.00500583
510 1 0.4 0.5 0.000103501 -2.4771 24.5084
511 1 0.416667 0.45 0.0657392 -2.83187 0.00500583
512 1 0.416667 0.55 0.0657392 -2.83187 0.00500583
515 1 0.45 0.45 0.000103501 -2.4771 24.5084
530 1 0.45 0.55 0.000103501 -2.4771 24.5084
635 1 0.466667 0.5 0.0657392 -2.83187 0.00500583
662 1 0.5 0.5 0.000103501 -2.4771 24.5084
641 1 0.516667 0.45 0.0657392 -2.83187 0.00500583
660 1 0.516667 0.55 0.0657392 -2.83187 0.00500583
663 1 0.55 0.45 0.000103501 -2.4771 24.5084
664 1 0.55 0.55 0.000103501 -2.4771 24.5084
789 1 0.566667 0.5 0.0657392 -2.83187 0.00500583
790 1 0.6 0.5 0.000103501 -2.4771 24.5084
791 1 0.616667 0.45 0.0657392 -2.83187 0.00500583
792 1 0.616667 0.55 0.0657392 -2.83187 0.00500583
795 1 0.65 0.45 0.000103501 -2.4771 24.5084
810 1 0.65 0.55 0.000103501 -2.4771 24.5084
915 1 0.666667 0.5 0.0657392 -2.83187 0.00500583
921 1 0.716667 0.45 0.0657392 -2.83187 0.00500583
940 1 0.716667 0.55 0.0657392 -2.83187 0.00500583
942 1 0.7 0.5 0.000103501 -2.4771 24.5084
943 1 0.75 0.45 0.000103501 -2.4771 24.5084
944 1 0.75 0.55 0.000103501 -2.4771 24.5084
1069 1 0.766667 0.5 0.0657392 -2.83187 0.00500583
1070 1 0.8 0.5 0.000103501 -2.4771 24.5084
1071 1 0.816667 0.45 0.0657392 -2.83187 0.00500583
1072 1 0.816667 0.55 0.0657392 -2.83187 0.00500583
1075 1 0.85 0.45 0.000103501 -2.4771 24.5084
1090 1 0.85 0.55 0.000103501 -2.4771 24.5084
1195 1 0.866667 0.5 0.0657392 -2.83187 0.00500583
1201 1 0.916667 0.45 0.0657392 -2.83187 0.00500583
1220 1 0.916667 0.55 0.0657392 -2.83187 0.00500583
1222 1 0.9 0.5 0.000103501 -2.4771 24.5084
1223 1 0.95 0.45 0.000103501 -2.4771 24.5084
1224 1 0.95 0.55 0.000103501 -2.4771 24.5084
1338 1 0.966667 0.5 0.0657392 -2.83187 0.00500583
18 1 0 0.7 0.000103501 -2.4771 24.5084
19 1 0.0166667 0.65 0.0657392 -2.83187 0.00500583
21 1 0 0.6 0.000103501 -2.4771 24.5084
23 1 0.05 0.65 0.000103501 -2.4771 24.5084
95 1 0.0666667 0.7 0.0657392 -2.83187 0.00500583
98 1 0.0666667 0.6 0.0657392 -2.83187 0.00500583
99 1 0.1 0.6 0.000103501 -2.4771 24.5084
101 1 0.116667 0.65 0.0657392 -2.83187 0.00500583
114 1 0.1 0.7 0.000103501 -2.4771 24.5084
115 1 0.15 0.65 0.000103501 -2.4771 24.5084
226 1 0.166667 0.6 0.0657392 -2.83187 0.00500583
245 1 0.166667 0.7 0.0657392 -2.83187 0.00500583
246 1 0.2 0.7 0.000103501 -2.4771 24.5084
247 1 0.216667 0.65 0.0657392 -2.83187 0.00500583
249 1 0.2 0.6 0.000103501 -2.4771 24.5084
251 1 0.25 0.65 0.000103501 -2.4771 24.5084
375 1 0.266667 0.7 0.0657392 -2.83187 0.00500583
378 1 0.266667 0.6 0.0657392 -2.83187 0.00500583
379 1 0.3 0.6 0.000103501 -2.4771 24.5084
381 1 0.316667 0.65 0.0657392 -2.83187 0.00500583
394 1 0.3 0.7 0.000103501 -2.4771 24.5084
395 1 0.35 0.65 0.000103501 -2.4771 24.5084
506 1 0.366667 0.6 0.0657392 -2.83187 0.00500583
525 1 0.366667 0.7 0.0657392 -2.83187 0.00500583
526 1 0.4 0.7 0.000103501 -2.4771 24.5084
527 1 0.416667 0.65 0.0657392 -2.83187 0.00500583
529 1 0.4 0.6 0.000103501 -2.4771 24.5084
531 1 0.45 0.65 0.000103501 -2.4771 24.5084
655 1 0.466667 0.7 0.0657392 -2.83187 0.00500583
658 1 0.466667 0.6 0.0657392 -2.83187 0.00500583
659 1 0.5 0.6 0.000103501 -2.4771 24.5084
674 1 0.5 0.7 0.000103501 -2.4771 24.5084
661 1 0.516667 0.65 0.0657392 -2.83187 0.00500583
675 1 0.55 0.65 0.000103501 -2.4771 24.5084
786 1 0.566667 0.6 0.0657392 -2.83187 0.00500583
805 1 0.566667 0.7 0.0657392 -2.83187 0.00500583
806 1 0.6 0.7 0.000103501 -2.4771 24.5084
807 1 0.616667 0.65 0.0657392 -2.83187 0.00500583
809 1 0.6 0.6 0.000103501 -2.4771 24.5084
811 1 0.65 0.65 0.000103501 -2.4771 24.5084
935 1 0.666667 0.7 0.0657392 -2.83187 0.00500583
938 1 0.666667 0.6 0.0657392 -2.83187 0.00500583
939 1 0.7 0.6 0.000103501 -2.4771 24.5084
941 1 0.716667 0.65 0.0657392 -2.83187 0.00500583
954 1 0.7 0.7 0.000103501 -2.4771 24.5084
955 1 0.75 0.65 0.000103501 -2.4771 24.5084
1066 1 0.766667 0.6 0.0657392 -2.83187 0.00500583
1085 1 0.766667 0.7 0.0657392 -2.83187 0.00500583
1086 1 0.8 0.7 0.000103501 -2.4771 24.5084
1087 1 0.816667 0.65 0.0657392 -2.83187 0.00500583
1089 1 0.8 0.6 0.000103501 -2.4771 24.5084
1091 1 0.85 0.65 0.000103501 -2.4771 24.5084
1215 1 0.866667 0.7 0.0657392 -2.83187 0.00500583
1218 1 0.866667 0.6 0.0657392 -2.83187 0.00500583
1219 1 0.9 0.6 0.000103501 -2.4771 24.5084
1221 1 0.916667 0.65 0.0657392 -2.83187 0.00500583
1234 1 0.9 0.7 0.000103501 -2.4771 24.5084
1235 1 0.95 0.65 0.000103501 -2.4771 24.5084
1335 1 0.966667 0.6 0.0657392 -2.83187 0.00500583
1348 1 0.966667 0.7 0.0657392 -2.83187 0.00500583
20 1 0.0166667 0.75 0.0657392 -2.83187 0.00500583
25 1 0.0166667 0.85 0.0657392 -2.83187 0.00500583
27 1 0 0.8 0.000103501 -2.4771 24.5084
28 1 0.05 0.75 0.000103501 -2.4771 24.5084
29 1 0.05 0.85 0.000103501 -2.4771 24.5084
110 1 0.0666667 0.8 0.0657392 -2.83187 0.00500583
111 1 0.1 0.8 0.000103501 -2.4771 24.5084
112 1 0.116667 0.75 0.0657392 -2.83187 0.00500583
113 1 0.116667 0.85 0.0657392 -2.83187 0.00500583
116 1 0.15 0.75 0.000103501 -2.4771 24.5084
119 1 0.15 0.85 0.000103501 -2.4771 24.5084
242 1 0.166667 0.8 0.0657392 -2.83187 0.00500583
248 1 0.216667 0.75 0.0657392 -2.83187 0.00500583
255 1 0.216667 0.85 0.0657392 -2.83187 0.00500583
257 1 0.2 0.8 0.000103501 -2.4771 24.5084
258 1 0.25 0.75 0.000103501 -2.4771 24.5084
259 1 0.25 0.85 0.000103501 -2.4771 24.5084
390 1 0.266667 0.8 0.0657392 -2.83187 0.00500583
391 1 0.3 0.8 0.000103501 -2.4771 24.5084
392 1 0.316667 0.75 0.0657392 -2.83187 0.00500583
393 1 0.316667 0.85 0.0657392 -2.83187 0.00500583
396 1 0.35 0.75 0.000103501 -2.4771 24.5084
399 1 0.35 0.85 0.000103501 -2.4771 24.5084
522 1 0.366667 0.8 0.0657392 -2.83187 0.00500583
528 1 0.416667 0.75 0.0657392 -2.83187 0.00500583
535 1 0.416667 0.85 0.0657392 -2.83187 0.00500583
537 1 0.4 0.8 0.000103501 -2.4771 24.5084
538 1 0.45 0.75 0.000103501 -2.4771 24.5084
539 1 0.45 0.85 0.000103501 -2.4771 24.5084
670 1 0.466667 0.8 0.0657392 -2.83187 0.00500583
671 1 0.5 0.8 0.000103501 -2.4771 24.5084
672 1 0.516667 0.75 0.0657392 -2.83187 0.00500583
673 1 0.516667 0.85 0.0657392 -2.83187 0.00500583
676 1 0.55 0.75 0.000103501 -2.4771 24.5084
679 1 0.55 0.85 0.000103501 -2.4771 24.5084
802 1 0.566667 0.8 0.0657392 -2.83187 0.00500583
808 1 0.616667 0.75 0.0657392 -2.83187 0.00500583
815 1 0.616667 0.85 0.0657392 -2.83187 0.00500583
817 1 0.6 0.8 0.000103501 -2.4771 24.5084
818 1 0.65 0.75 0.000103501 -2.4771 24.5084
819 1 0.65 0.85 0.000103501 -2.4771 24.5084
950 1 0.666667 0.8 0.0657392 -2.83187 0.00500583
951 1 0.7 0.8 0.000103501 -2.4771 24.5084
952 1 0.716667 0.75 0.0657392 -2.83187 0.00500583
953 1 0.716667 0.85 0.0657392 -2.83187 0.00500583
956 1 0.75 0.75 0.000103501 -2.4771 24.5084
959 1 0.75 0.85 0.000103501 -2.4771 24.5084
1082 1 0.766667 0.8 0.0657392 -2.83187 0.00500583
1088 1 0.816667 0.75 0.0657392 -2.83187 0.00500583
1095 1 0.816667 0.85 0.0657392 -2.83187 0.00500583
1097 1 0.8 0.8 0.000103501 -2.4771 24.5084
1098 1 0.85 0.75 0.000103501 -2.4771 24.5084
1099 1 0.85 0.85 0.000103501 -2.4771 24.5084
1230 1 0.866667 0.8 0.0657392 -2.83187 0.00500583
1231 1 0.9 0.8 0.000103501 -2.4771 24.5084
1232 1 0.916667 0.75 0.0657392 -2.83187 0.00500583
1233 1 0.916667 0.85 0.0657392 -2.83187 0.00500583
1236 1 0.95 0.75 0.000103501 -2.4771 24.5084
1239 1 0.95 0.85 0.000103501 -2.4771 24.5084
1345 1 0.966667 0.8 0.0657392 -2.83187 0.00500583
24 1 0 0.9 0.000103501 -2.4771 24.5084
26 1 0.0166667 0.95 0.0657392 -2.83187 0.00500583
30 1 0.05 0.95 0.000103501 -2.4771 24.5084
107 1 0.0666667 0.9 0.0657392 -2.83187 0.00500583
117 1 0.116667 0.95 0.0657392 -2.83187 0.00500583
118 1 0.1 0.9 0.000103501 -2.4771 24.5084
120 1 0.15 0.95 0.000103501 -2.4771 24.5084
253 1 0.166667 0.9 0.0657392 -2.83187 0.00500583
254 1 0.2 0.9 0.000103501 -2.4771 24.5084
256 1 0.216667 0.95 0.0657392 -2.83187 0.00500583
260 1 0.25 0.95 0.000103501 -2.4771 24.5084
387 1 0.266667 0.9 0.0657392 -2.83187 0.00500583
397 1 0.316667 0.95 0.0657392 -2.83187 0.00500583
398 1 0.3 0.9 0.000103501 -2.4771 24.5084
400 1 0.35 0.95 0.000103501 -2.4771 24.5084
533 1 0.366667 0.9 0.0657392 -2.83187 0.00500583
534 1 0.4 0.9 0.000103501 -2.4771 24.5084
536 1 0.416667 0.95 0.0657392 -2.83187 0.00500583
540 1 0.45 0.95 0.000103501 -2.4771 24.5084
667 1 0.466667 0.9 0.0657392 -2.83187 0.00500583
678 1 0.5 0.9 0.000103501 -2.4771 24.5084
677 1 0.516667 0.95 0.0657392 -2.83187 0.00500583
680 1 0.55 0.95 0.000103501 -2.4771 24.5084
813 1 0.566667 0.9 0.0657392 -2.83187 0.00500583
814 1 0.6 0.9 0.000103501 -2.4771 24.5084
816 1 0.616667 0.95 0.0657392 -2.83187 0.00500583
820 1 0.65 0.95 0.000103501 -2.4771 24.5084
947 1 0.666667 0.9 0.0657392 -2.83187 0.00500583
957 1 0.716667 0.95 0.0657392 -2.83187 0.00500583
958 1 0.7 0.9 0.000103501 -2.4771 24.5084
960 1 0.75 0.95 0.000103501 -2.4771 24.5084
1093 1 0.766667 0.9 0.0657392 -2.83187 0.00500583
1094 1 0.8 0.9 0.000103501 -2.4771 24.5084
1096 1 0.816667 0.95 0.0657392 -2.83187 0.00500583
1100 1 0.85 0.95 0.000103501 -2.4771 24.5084
1227 1 0.866667 0.9 0.0657392 -2.83187 0.00500583
1237 1 0.916667 0.95 0.0657392 -2.83187 0.00500583
1238 1 0.9 0.9 0.000103501 -2.4771 24.5084
1240 1 0.95 0.95 0.000103501 -2.4771 24.5084
1350 1 0.966667 0.9 0.0657392 -2.83187 0.00500583
31 1 0 0.1 0.199344 -2.85076 2.36744e-06
34 1 0 0 0.199344 -2.85076 2.36744e-06
35 1 0.0333333 0 0.132531 -2.85122 1.85689e-06
36 1 0.05 0.05 0.199344 -2.85076 2.36744e-06
44 1 0.0333333 0.1 0.132531 -2.85122 1.85689e-06
46 1 0.0833333 0.05 0.132531 -2.85122 1.85689e-06
135 1 0.1 0 0.199344 -2.85076 2.36744e-06
150 1 0.1 0.1 0.199344 -2.85076 2.36744e-06
151 1 0.133333 0.1 0.132531 -2.85122 1.85689e-06
152 1 0.15 0.05 0.199344 -2.85076 2.36744e-06
154 1 0.133333 0 0.132531 -2.85122 1.85689e-06
156 1 0.183333 0.05 0.132531 -2.85122 1.85689e-06
280 1 0.2 0.1 0.199344 -2.85076 2.36744e-06
283 1 0.2 0 0.199344 -2.85076 2.36744e-06
284 1 0.233333 0 0.132531 -2.85122 1.85689e-06
285 1 0.25 0.05 0.199344 -2.85076 2.36744e-06
303 1 0.233333 0.1 0.132531 -2.85122 1.85689e-06
305 1 0.283333 0.05 0.132531 -2.85122 1.85689e-06
415 1 0.3 0 0.199344 -2.85076 2.36744e-06
430 1 0.3 0.1 0.199344 -2.85076 2.36744e-06
431 1 0.333333 0.1 0.132531 -2.85122 1.85689e-06
434 1 0.333333 0 0.132531 -2.85122 1.85689e-06
432 1 0.35 0.05 0.199344 -2.85076 2.36744e-06
436 1 0.383333 0.05 0.132531 -2.85122 1.85689e-06
560 1 0.4 0.1 0.199344 -2.85076 2.36744e-06
563 1 0.4 0 0.199344 -2.85076 2.36744e-06
564 1 0.433333 0 0.132531 -2.85122 1.85689e-06
565 1 0.45 0.05 0.199344 -2.85076 2.36744e-06
583 1 0.433333 0.1 0.132531 -2.85122 1.85689e-06
585 1 0.483333 0.05 0.132531 -2.85122 1.85689e-06
695 1 0.5 0 0.199344 -2.85076 2.36744e-06
710 1 0.5 0.1 0.199344 -2.85076 2.36744e-06
711 1 0.533333 0.1 0.132531 -2.85122 1.85689e-06
712 1 0.55 0.05 0.199344 -2.85076 2.36744e-06
714 1 0.533333 0 0.132531 -2.85122 1.85689e-06
716 1 0.583333 0.05 0.132531 -2.85122 1.85689e-06
840 1 0.6 0.1 0.199344 -2.85076 2.36744e-06
843 1 0.6 0 0.199344 -2.85076 2.36744e-06
844 1 0.633333 0 0.132531 -2.85122 1.85689e-06
845 1 0.65 0.05 0.199344 -2.85076 2.36744e-06
863 1 0.633333 0.1 0.132531 -2.85122 1.85689e-06
865 1 0.683333 0.05 0.132531 -2.85122 1.85689e-06
975 1 0.7 0 0.199344 -2.85076 2.36744e-06
990 1 0.7 0.1 0.199344 -2.85076 2.36744e-06
991 1 0.733333 0.1 0.132531 -2.85122 1.85689e-06
992 1 0.75 0.05 0.199344 -2.85076 2.36744e-06
994 1 0.733333 0 0.132531 -2.85122 1.85689e-06
996 1 0.783333 0.05 0.132531 -2.85122 1.85689e-06
1120 1 0.8 0.1 0.199344 -2.85076 2.36744e-06
1123 1 0.8 0 0.199344 -2.85076 2.36744e-06
1124 1 0.833333 0 0.132531 -2.85122 1.85689e-06
1143 1 0.833333 0.1 0.132531 -2.85122 1.85689e-06
1125 1 0.85 0.05 0.199344 -2.85076 2.36744e-06
1145 1 0.883333 0.05 0.132531 -2.85122 1.85689e-06
1255 1 0.9 0 0.199344 -2.85076 2.36744e-06
1270 1 0.9 0.1 0.199344 -2.85076 2.36744e-06
1271 1 0.933333 0.1 0.132531 -2.85122 1.85689e-06
1272 1 0.95 0.05 0.199344 -2.85076 2.36744e-06
1274 1 0.933333 0 0.132531 -2.85122 1.85689e-06
1276 1 0.983333 0.05 0.132531 -2.85122 1.85689e-06
40 1 0 0.2 0.199344 -2.85076 2.36744e-06
41 1 0.0333333 0.2 0.132531 -2.85122 1.85689e-06
42 1 0.05 0.15 0.199344 -2.85076 2.36744e-06
43 1 0.05 0.25 0.199344 -2.85076 2.36744e-06
47 1 0.0833333 0.15 0.132531 -2.85122 1.85689e-06
60 1 0.0833333 0.25 0.132531 -2.85122 1.85689e-06
147 1 0.1 0.2 0.199344 -2.85076 2.36744e-06
153 1 0.15 0.15 0.199344 -2.85076 2.36744e-06
172 1 0.15 0.25 0.199344 -2.85076 2.36744e-06
174 1 0.133333 0.2 0.132531 -2.85122 1.85689e-06
176 1 0.183333 0.15 0.132531 -2.85122 1.85689e-06
177 1 0.183333 0.25 0.132531 -2.85122 1.85689e-06
299 1 0.2 0.2 0.199344 -2.85076 2.36744e-06
300 1 0.233333 0.2 0.132531 -2.85122 1.85689e-06
301 1 0.25 0.15 0.199344 -2.85076 2.36744e-06
302 1 0.25 0.25 0.199344 -2.85076 2.36744e-06
306 1 0.283333 0.15 0.132531 -2.85122 1.85689e-06
329 1 0.283333 0.25 0.132531 -2.85122 1.85689e-06
427 1 0.3 0.2 0.199344 -2.85076 2.36744e-06
454 1 0.333333 0.2 0.132531 -2.85122 1.85689e-06
433 1 0.35 0.15 0.199344 -2.85076 2.36744e-06
452 1 0.35 0.25 0.199344 -2.85076 2.36744e-06
456 1 0.383333 0.15 0.132531 -2.85122 1.85689e-06
457 1 0.383333 0.25 0.132531 -2.85122 1.85689e-06
579 1 0.4 0.2 0.199344 -2.85076 2.36744e-06
580 1 0.433333 0.2 0.132531 -2.85122 1.85689e-06
581 1 0.45 0.15 0.199344 -2.85076 2.36744e-06
582 1 0.45 0.25 0.199344 -2.85076 2.36744e-06
586 1 0.483333 0.15 0.132531 -2.85122 1.85689e-06
609 1 0.483333 0.25 0.132531 -2.85122 1.85689e-06
707 1 0.5 0.2 0.199344 -2.85076 2.36744e-06
713 1 0.55 0.15 0.199344 -2.85076 2.36744e-06
732 1 0.55 0.25 0.199344 -2.85076 2.36744e-06
734 1 0.533333 0.2 0.132531 -2.85122 1.85689e-06
736 1 0.583333 0.15 0.132531 -2.85122 1.85689e-06
737 1 0.583333 0.25 0.132531 -2.85122 1.85689e-06
859 1 0.6 0.2 0.199344 -2.85076 2.36744e-06
860 1 0.633333 0.2 0.132531 -2.85122 1.85689e-06
861 1 0.65 0.15 0.199344 -2.85076 2.36744e-06
862 1 0.65 0.25 0.199344 -2.85076 2.36744e-06
866 1 0.683333 0.15 0.132531 -2.85122 1.85689e-06
889 1 0.683333 0.25 0.132531 -2.85122 1.85689e-06
987 1 0.7 0.2 0.199344 -2.85076 2.36744e-06
993 1 0.75 0.15 0.199344 -2.85076 2.36744e-06
1012 1 0.75 0.25 0.199344 -2.85076 2.36744e-06
1014 1 0.733333 0.2 0.132531 -2.85122 1.85689e-06
1016 1 0.783333 0.15 0.132531 -2.85122 1.85689e-06
1017 1 0.783333 0.25 0.132531 -2.85122 1.85689e-06
1139 1 0.8 0.2 0.199344 -2.85076 2.36744e-06
1140 1 0.833333 0.2 0.132531 -2.85122 1.85689e-06
1141 1 0.85 0.15 0.199344 -2.85076 2.36744e-06
1142 1 0.85 0.25 0.199344 -2.85076 2.36744e-06
1146 1 0.883333 0.15 0.132531 -2.85122 1.85689e-06
1169 1 0.883333 0.25 0.132531 -2.85122 1.85689e-06
1267 1 0.9 0.2 0.199344 -2.85076 2.36744e-06
1273 1 0.95 0.15 0.199344 -2.85076 2.36744e-06
1292 1 0.95 0.25 0.199344 -2.85076 2.36744e-06
1294 1 0.933333 0.2 0.132531 -2.85122 1.85689e-06
1296 1 0.983333 0.15 0.132531 -2.85122 1.85689e-06
1297 1 0.983333 0.25 0.132531 -2.85122 1.85689e-06
37 1 0 0.3 0.199344 -2.85076 2.36744e-06
54 1 8.86546e-18 0.4 0.199344 -2.85076 2.36744e-06
55 1 0.0333333 0.4 0.132531 -2.85122 1.85689e-06
56 1 0.05 0.35 0.199344 -2.85076 2.36744e-06
58 1 0.0333333 0.3 0.132531 -2.85122 1.85689e-06
61 1 0.0833333 0.35 0.132531 -2.85122 1.85689e-06
167 1 0.1 0.4 0.199344 -2.85076 2.36744e-06
170 1 0.1 0.3 0.199344 -2.85076 2.36744e-06
171 1 0.133333 0.3 0.132531 -2.85122 1.85689e-06
173 1 0.15 0.35 0.199344 -2.85076 2.36744e-06
201 1 0.133333 0.4 0.132531 -2.85122 1.85689e-06
203 1 0.183333 0.35 0.132531 -2.85122 1.85689e-06
296 1 0.2 0.3 0.199344 -2.85076 2.36744e-06
323 1 0.2 0.4 0.199344 -2.85076 2.36744e-06
324 1 0.233333 0.4 0.132531 -2.85122 1.85689e-06
325 1 0.25 0.35 0.199344 -2.85076 2.36744e-06
327 1 0.233333 0.3 0.132531 -2.85122 1.85689e-06
330 1 0.283333 0.35 0.132531 -2.85122 1.85689e-06
447 1 0.3 0.4 0.199344 -2.85076 2.36744e-06
450 1 0.3 0.3 0.199344 -2.85076 2.36744e-06
451 1 0.333333 0.3 0.132531 -2.85122 1.85689e-06
481 1 0.333333 0.4 0.132531 -2.85122 1.85689e-06
453 1 0.35 0.35 0.199344 -2.85076 2.36744e-06
483 1 0.383333 0.35 0.132531 -2.85122 1.85689e-06
576 1 0.4 0.3 0.199344 -2.85076 2.36744e-06
603 1 0.4 0.4 0.199344 -2.85076 2.36744e-06
604 1 0.433333 0.4 0.132531 -2.85122 1.85689e-06
605 1 0.45 0.35 0.199344 -2.85076 2.36744e-06
607 1 0.433333 0.3 0.132531 -2.85122 1.85689e-06
610 1 0.483333 0.35 0.132531 -2.85122 1.85689e-06
727 1 0.5 0.4 0.199344 -2.85076 2.36744e-06
730 1 0.5 0.3 0.199344 -2.85076 2.36744e-06
731 1 0.533333 0.3 0.132531 -2.85122 1.85689e-06
733 1 0.55 0.35 0.199344 -2.85076 2.36744e-06
761 1 0.533333 0.4 0.132531 -2.85122 1.85689e-06
763 1 0.583333 0.35 0.132531 -2.85122 1.85689e-06
856 1 0.6 0.3 0.199344 -2.85076 2.36744e-06
883 1 0.6 0.4 0.199344 -2.85076 2.36744e-06
884 1 0.633333 0.4 0.132531 -2.85122 1.85689e-06
885 1 0.65 0.35 0.199344 -2.85076 2.36744e-06
887 1 0.633333 0.3 0.132531 -2.85122 1.85689e-06
890 1 0.683333 0.35 0.132531 -2.85122 1.85689e-06
1007 1 0.7 0.4 0.199344 -2.85076 2.36744e-06
1010 1 0.7 0.3 0.199344 -2.85076 2.36744e-06
1011 1 0.733333 0.3 0.132531 -2.85122 1.85689e-06
1013 1 0.75 0.35 0.199344 -2.85076 2.36744e-06
1041 1 0.733333 0.4 0.132531 -2.85122 1.85689e-06
1043 1 0.783333 0.35 0.132531 -2.85122 1.85689e-06
1136 1 0.8 0.3 0.199344 -2.85076 2.36744e-06
1163 1 0.8 0.4 0.199344 -2.85076 2.36744e-06
1164 1 0.833333 0.4 0.132531 -2.85122 1.85689e-06
1167 1 0.833333 0.3 0.132531 -2.85122 1.85689e-06
1165 1 0.85 0.35 0.199344 -2.85076 2.36744e-06
1170 1 0.883333 0.35 0.132531 -2.85122 1.85689e-06
1287 1 0.9 0.4 0.199344 -2.85076 2.36744e-06
1290 1 0.9 0.3 0.199344 -2.85076 2.36744e-06
1291 1 0.933333 0.3 0.132531 -2.85122 1.85689e-06
1293 1 0.95 0.35 0.199344 -2.85076 2.36744e-06
1316 1 0.933333 0.4 0.132531 -2.85122 1.85689e-06
1318 1 0.983333 0.35 0.132531 -2.85122 1.85689e-06
51 1 0 0.5 0.199344 -2.85076 2.36744e-06
57 1 0.05 0.45 0.199344 -2.85076 2.36744e-06
74 1 0.05 0.55 0.199344 -2.85076 2.36744e-06
76 1 0.0333333 0.5 0.132531 -2.85122 1.85689e-06
78 1 0.0833333 0.45 0.132531 -2.85122 1.85689e-06
79 1 0.0833333 0.55 0.132531 -2.85122 1.85689e-06
197 1 0.1 0.5 0.199344 -2.85076 2.36744e-06
198 1 0.133333 0.5 0.132531 -2.85122 1.85689e-06
199 1 0.15 0.45 0.199344 -2.85076 2.36744e-06
200 1 0.15 0.55 0.199344 -2.85076 2.36744e-06
204 1 0.183333 0.45 0.132531 -2.85122 1.85689e-06
227 1 0.183333 0.55 0.132531 -2.85122 1.85689e-06
320 1 0.2 0.5 0.199344 -2.85076 2.36744e-06
326 1 0.25 0.45 0.199344 -2.85076 2.36744e-06
352 1 0.25 0.55 0.199344 -2.85076 2.36744e-06
354 1 0.233333 0.5 0.132531 -2.85122 1.85689e-06
356 1 0.283333 0.45 0.132531 -2.85122 1.85689e-06
357 1 0.283333 0.55 0.132531 -2.85122 1.85689e-06
477 1 0.3 0.5 0.199344 -2.85076 2.36744e-06
478 1 0.333333 0.5 0.132531 -2.85122 1.85689e-06
479 1 0.35 0.45 0.199344 -2.85076 2.36744e-06
480 1 0.35 0.55 0.199344 -2.85076 2.36744e-06
484 1 0.383333 0.45 0.132531 -2.85122 1.85689e-06
507 1 0.383333 0.55 0.132531 -2.85122 1.85689e-06
600 1 0.4 0.5 0.199344 -2.85076 2.36744e-06
606 1 0.45 0.45 0.199344 -2.85076 2.36744e-06
632 1 0.45 0.55 0.199344 -2.85076 2.36744e-06
634 1 0.433333 0.5 0.132531 -2.85122 1.85689e-06
636 1 0.483333 0.45 0.132531 -2.85122 1.85689e-06
637 1 0.483333 0.55 0.132531 -2.85122 1.85689e-06
757 1 0.5 0.5 0.199344 -2.85076 2.36744e-06
758 1 0.533333 0.5 0.132531 -2.85122 1.85689e-06
759 1 0.55 0.45 0.199344 -2.85076 2.36744e-06
760 1 0.55 0.55 0.199344 -2.85076 2.36744e-06
764 1 0.583333 0.45 0.132531 -2.85122 1.85689e-06
787 1 0.583333 0.55 0.132531 -2.85122 1.85689e-06
880 1 0.6 0.5 0.199344 -2.85076 2.36744e-06
886 1 0.65 0.45 0.199344 -2.85076 2.36744e-06
912 1 0.65 0.55 0.199344 -2.85076 2.36744e-06
914 1 0.633333 0.5 0.132531 -2.85122 1.85689e-06
916 1 0.683333 0.45 0.132531 -2.85122 1.85689e-06
917 1 0.683333 0.55 0.132531 -2.85122 1.85689e-06
1037 1 0.7 0.5 0.199344 -2.85076 2.36744e-06
1038 1 0.733333 0.5 0.132531 -2.85122 1.85689e-06
1039 1 0.75 0.45 0.199344 -2.85076 2.36744e-06
1040 1 0.75 0.55 0.199344 -2.85076 2.36744e-06
1044 1 0.783333 0.45 0.132531 -2.85122 1.85689e-06
1067 1 0.783333 0.55 0.132531 -2.85122 1.85689e-06
1160 1 0.8 0.5 0.199344 -2.85076 2.36744e-06
1194 1 0.833333 0.5 0.132531 -2.85122 1.85689e-06
1166 1 0.85 0.45 0.199344 -2.85076 2.36744e-06
1192 1 0.85 0.55 0.199344 -2.85076 2.36744e-06
1196 1 0.883333 0.45 0.132531 -2.85122 1.85689e-06
1197 1 0.883333 0.55 0.132531 -2.85122 1.85689e-06
1312 1 0.9 0.5 0.199344 -2.85076 2.36744e-06
1313 1 0.933333 0.5 0.132531 -2.85122 1.85689e-06
1314 1 0.95 0.45 0.199344 -2.85076 2.36744e-06
1315 1 0.95 0.55 0.199344 -2.85076 2.36744e-06