ITEM: TIMESTEP
114
ITEM: NUMBER OF ATOMS
3200
ITEM: BOX BOUNDS pp pp ss
0.0000000000000000e+00 5.0092067021360698e+01
0.0000000000000000e+00 2.8920668379047399e+01
-1.5671243861047840e-01 3.5533785112952430e+01
ITEM: ATOMS id type xs ys zs c_peratom c_csym
1 1 1.55566e-07 0.0999997 0.00010276 -2.4771 24.5082
2 1 0.0166667 0.0500003 0.0651005 -2.83187 0.00500487
5 1 0.0499998 0.0500001 0.0001027 -2.4771 24.5083
45 1 0.0666666 0.0999999 0.0651005 -2.83187 0.00500479
48 1 0.0666665 1.55797e-07 0.0651004 -2.83187 0.00500695
49 1 0.0999999 1.02684e-07 0.000102644 -2.4771 24.5085
50 1 0.116667 0.0499997 0.0651004 -2.83187 0.00500597
66 1 0.0999998 0.0999999 0.000102777 -2.4771 24.5083
67 1 0.15 0.0500002 0.000102908 -2.4771 24.5082
178 1 0.166667 0.1 0.0651004 -2.83187 0.00500701
179 1 0.2 0.1 0.000102746 -2.4771 24.5082
180 1 0.216667 0.0500002 0.0651004 -2.83187 0.0050058
182 1 0.2 1.84467e-07 0.000102807 -2.4771 24.5082
183 1 0.25 0.0500001 0.000102652 -2.4771 24.5084
304 1 0.266667 0.0999997 0.0651003 -2.83187 0.00500793
307 1 0.266666 3.81866e-09 0.0651005 -2.83187 0.00500596
308 1 0.3 7.36748e-08 0.000102815 -2.4771 24.5083
309 1 0.316666 0.0499998 0.0651006 -2.83187 0.0050049
335 1 0.3 0.0999999 0.000102777 -2.4771 24.5083
336 1 0.35 0.0499997 0.000102945 -2.4771 24.5081
458 1 0.366667 0.0999999 0.0651004 -2.83187 0.00500729
459 1 0.4 0.1 0.000102675 -2.4771 24.5084
460 1 0.416666 0.0500002 0.0651006 -2.83187 0.0050041
462 1 0.4 2.26768e-07 0.000102801 -2.4771 24.5082
463 1 0.45 0.05 0.000102916 -2.4771 24.5081
584 1 0.466667 0.1 0.0651005 -2.83187 0.00500524
588 1 0.5 7.99778e-08 0.000102697 -2.4771 24.5085
615 1 0.5 0.0999999 0.000102863 -2.4771 24.5082
589 1 0.516667 0.0499997 0.0651004 -2.83187 0.00500662
616 1 0.55 0.0500002 0.000102811 -2.4771 24.5083
715 1 0.566667 1.20563e-09 0.0651004 -2.83187 0.00500724
738 1 0.566667 0.1 0.0651005 -2.83187 0.00500568
739 1 0.6 0.1 0.000102934 -2.4771 24.5081
740 1 0.616667 0.0500001 0.0651004 -2.83187 0.00500661
743 1 0.65 0.05 0.000102713 -2.4771 24.5084
864 1 0.666667 0.1 0.0651004 -2.83187 0.00500667
867 1 0.666667 6.82114e-08 0.0651004 -2.83187 0.00500591
869 1 0.716667 0.0499999 0.0651005 -2.83187 0.00500586
895 1 0.7 0.1 0.000102796 -2.4771 24.5083
896 1 0.75 0.0500003 0.000102904 -2.4771 24.5081
1018 1 0.766667 0.1 0.0651004 -2.83187 0.00500719
1019 1 0.8 0.0999999 0.000102836 -2.4771 24.5082
1020 1 0.816667 0.05 0.0651006 -2.83187 0.00500421
1023 1 0.85 0.0499997 0.000102694 -2.4771 24.5083
1144 1 0.866667 0.1 0.0651004 -2.83187 0.00500712
1147 1 0.866667 2.39766e-07 0.0651005 -2.83187 0.00500483
1148 1 0.9 9.55149e-08 0.000102855 -2.4771 24.5082
1149 1 0.916667 0.0499998 0.0651004 -2.83187 0.0050063
1175 1 0.9 0.1 0.000102871 -2.4771 24.5081
4 1 1 3.22296e-08 0.000102855 -2.4771 24.5082
1176 1 0.95 0.0499998 0.000102736 -2.4771 24.5083
1275 1 0.966667 5.9967e-08 0.0651004 -2.83187 0.00500685
1298 1 0.966667 0.0999997 0.0651004 -2.83187 0.00500801
3 1 0.0166665 0.15 0.0651004 -2.83187 0.00500668
7 1 0.0166668 0.25 0.0651004 -2.83187 0.00500663
10 1 0.05 0.15 0.000102792 -2.4771 24.5082
11 1 0.05 0.25 0.000102682 -2.4771 24.5084
62 1 0.0666665 0.2 0.0651004 -2.83187 0.00500761
63 1 0.1 0.2 0.000102799 -2.4771 24.5082
64 1 0.116667 0.15 0.0651004 -2.83187 0.00500609
65 1 0.116667 0.25 0.0651005 -2.83187 0.00500523
68 1 0.15 0.15 0.000102747 -2.4771 24.5084
85 1 0.15 0.25 0.000102945 -2.4771 24.508
175 1 0.166667 0.2 0.0651005 -2.83187 0.00500483
181 1 0.216667 0.15 0.0651005 -2.83187 0.0050053
207 1 0.216667 0.25 0.0651003 -2.83187 0.00500818
209 1 0.2 0.2 0.000102756 -2.4771 24.5083
210 1 0.25 0.15 0.000102719 -2.4771 24.5083
211 1 0.25 0.25 0.000102802 -2.4771 24.5082
331 1 0.266667 0.2 0.0651004 -2.83187 0.00500567
332 1 0.3 0.2 0.000102712 -2.4771 24.5084
333 1 0.316667 0.15 0.0651004 -2.83187 0.0050068
334 1 0.316667 0.25 0.0651003 -2.83187 0.00500655
337 1 0.35 0.15 0.00010282 -2.4771 24.5081
363 1 0.35 0.25 0.000102757 -2.4771 24.5083
455 1 0.366667 0.2 0.0651004 -2.83187 0.00500576
461 1 0.416667 0.15 0.0651004 -2.83187 0.00500599
489 1 0.4 0.2 0.000102646 -2.4771 24.5083
487 1 0.416667 0.25 0.0651004 -2.83187 0.00500625
490 1 0.45 0.15 0.000102624 -2.4771 24.5084
491 1 0.45 0.25 0.000102743 -2.4771 24.5083
611 1 0.466667 0.2 0.0651003 -2.83187 0.00500765
612 1 0.5 0.2 0.000102662 -2.4771 24.5084
613 1 0.516667 0.15 0.0651004 -2.83187 0.00500672
614 1 0.516667 0.25 0.0651005 -2.83187 0.00500522
617 1 0.55 0.15 0.000102692 -2.4771 24.5085
643 1 0.55 0.25 0.000102799 -2.4771 24.5082
735 1 0.566666 0.2 0.0651004 -2.83187 0.0050076
741 1 0.616667 0.15 0.0651004 -2.83187 0.0050066
767 1 0.616667 0.25 0.0651006 -2.83187 0.00500432
769 1 0.6 0.2 0.000102813 -2.4771 24.5083
770 1 0.65 0.15 0.000102669 -2.4771 24.5084
771 1 0.65 0.25 0.000102925 -2.4771 24.5082
891 1 0.666667 0.2 0.0651004 -2.83187 0.00500702
892 1 0.7 0.2 0.000102888 -2.4771 24.5081
893 1 0.716667 0.15 0.0651005 -2.83187 0.00500658
894 1 0.716667 0.25 0.0651005 -2.83187 0.00500505
897 1 0.75 0.15 0.000102871 -2.4771 24.5082
923 1 0.75 0.25 0.000102793 -2.4771 24.5082
1015 1 0.766667 0.2 0.0651004 -2.83187 0.0050063
1021 1 0.816667 0.15 0.0651004 -2.83187 0.00500602
1047 1 0.816667 0.25 0.0651004 -2.83187 0.00500671
1049 1 0.8 0.2 0.000102664 -2.4771 24.5084
1050 1 0.85 0.15 0.000102591 -2.4771 24.5086
1051 1 0.85 0.25 0.000102922 -2.4771 24.5082
1171 1 0.866667 0.2 0.0651005 -2.83187 0.00500565
1172 1 0.9 0.2 0.000102892 -2.4771 24.5082
9 1 1 0.2 0.000102676 -2.4771 24.5083
1173 1 0.916667 0.15 0.0651006 -2.83187 0.00500548
1174 1 0.916667 0.25 0.0651004 -2.83187 0.0050072
1177 1 0.95 0.15 0.000102901 -2.4771 24.5082
1203 1 0.95 0.25 0.000102867 -2.4771 24.5081
1295 1 0.966667 0.2 0.0651005 -2.83187 0.00500462
6 1 6.51908e-08 0.3 0.000102942 -2.4771 24.508
8 1 0.0166665 0.35 0.0651005 -2.83187 0.0050059
16 1 0.05 0.35 0.000102949 -2.4771 24.5081
59 1 0.0666669 0.3 0.0651004 -2.83187 0.00500663
80 1 0.0666666 0.4 0.0651005 -2.83187 0.0050052
81 1 0.0999999 0.4 0.000102774 -2.4771 24.5082
82 1 0.116667 0.35 0.0651003 -2.83187 0.00500749
84 1 0.1 0.3 0.000102554 -2.4771 24.5085
86 1 0.15 0.35 0.000102721 -2.4771 24.5083
202 1 0.166667 0.4 0.0651004 -2.83187 0.00500601
205 1 0.166667 0.3 0.0651005 -2.83187 0.0050053
206 1 0.2 0.3 0.000102814 -2.4771 24.5082
208 1 0.216667 0.35 0.0651005 -2.83187 0.00500563
233 1 0.2 0.4 0.000102857 -2.4771 24.5082
234 1 0.25 0.35 0.000102713 -2.4771 24.5083
328 1 0.266667 0.3 0.0651004 -2.83187 0.00500643
358 1 0.266667 0.4 0.0651004 -2.83187 0.00500686
359 1 0.3 0.4 0.000102708 -2.4771 24.5083
360 1 0.316667 0.35 0.0651004 -2.83187 0.00500588
362 1 0.3 0.3 0.000102716 -2.4771 24.5082
364 1 0.35 0.35 0.000102795 -2.4771 24.5082
482 1 0.366667 0.4 0.0651005 -2.83187 0.00500534
485 1 0.366667 0.3 0.0651003 -2.83187 0.00500741
486 1 0.4 0.3 0.000102758 -2.4771 24.5082
513 1 0.4 0.4 0.000102682 -2.4771 24.5084
488 1 0.416667 0.35 0.0651003 -2.83187 0.00500669
514 1 0.45 0.35 0.000102627 -2.4771 24.5083
608 1 0.466667 0.3 0.0651004 -2.83187 0.0050066
638 1 0.466667 0.4 0.0651003 -2.83187 0.00500671
639 1 0.5 0.4 0.000102837 -2.4771 24.5081
642 1 0.5 0.3 0.000102743 -2.4771 24.5083
640 1 0.516667 0.35 0.0651003 -2.83187 0.00500719
644 1 0.55 0.35 0.000102621 -2.4771 24.5084
762 1 0.566667 0.4 0.0651003 -2.83187 0.00500706
765 1 0.566667 0.3 0.0651005 -2.83187 0.00500508
766 1 0.6 0.3 0.000102911 -2.4771 24.5081
768 1 0.616667 0.35 0.0651004 -2.83187 0.00500666
793 1 0.6 0.4 0.000102759 -2.4771 24.5083
794 1 0.65 0.35 0.000102703 -2.4771 24.5084
888 1 0.666667 0.3 0.0651005 -2.83187 0.00500576
918 1 0.666667 0.4 0.0651005 -2.83187 0.00500562
919 1 0.7 0.4 0.000102867 -2.4771 24.5081
920 1 0.716667 0.35 0.0651005 -2.83187 0.0050068
922 1 0.7 0.3 0.000102741 -2.4771 24.5084
924 1 0.75 0.35 0.0001029 -2.4771 24.5082
1042 1 0.766667 0.4 0.0651005 -2.83187 0.00500559
1045 1 0.766667 0.3 0.0651004 -2.83187 0.00500676
1046 1 0.8 0.3 0.000102795 -2.4771 24.5083
1048 1 0.816667 0.35 0.0651004 -2.83187 0.00500653
1073 1 0.8 0.4 0.000102798 -2.4771 24.5083
1074 1 0.85 0.35 0.000102935 -2.4771 24.5081
1168 1 0.866667 0.3 0.0651005 -2.83187 0.00500558
1198 1 0.866667 0.4 0.0651004 -2.83187 0.00500754
1199 1 0.9 0.4 0.000102772 -2.4771 24.5081
1202 1 0.9 0.3 0.000102718 -2.4771 24.5084
15 1 1 0.4 0.000102644 -2.4771 24.5084
1200 1 0.916667 0.35 0.0651003 -2.83187 0.00500711
1204 1 0.95 0.35 0.000102572 -2.4771 24.5085
1317 1 0.966667 0.4 0.0651005 -2.83187 0.00500434
1320 1 0.966667 0.3 0.0651005 -2.83187 0.00500627
13 1 0.0166665 0.45 0.0651003 -2.83187 0.00500765
14 1 0.0166666 0.55 0.0651004 -2.83187 0.0050066
17 1 0.0500002 0.45 0.000102764 -2.4771 24.5081
22 1 0.0500002 0.55 0.000102881 -2.4771 24.5081
77 1 0.0666668 0.5 0.0651005 -2.83187 0.00500561
83 1 0.116667 0.45 0.0651004 -2.83187 0.00500627
100 1 0.116667 0.55 0.0651005 -2.83187 0.00500545
102 1 0.0999999 0.5 0.000102728 -2.4771 24.5084
103 1 0.15 0.45 0.000102717 -2.4771 24.5083
104 1 0.15 0.55 0.000102843 -2.4771 24.5082
229 1 0.166667 0.5 0.0651004 -2.83187 0.00500709
230 1 0.2 0.5 0.000102803 -2.4771 24.5083
231 1 0.216667 0.45 0.0651004 -2.83187 0.0050063
232 1 0.216667 0.55 0.0651005 -2.83187 0.00500543
250 1 0.25 0.55 0.000102781 -2.4771 24.5082
235 1 0.25 0.45 0.000102775 -2.4771 24.5084
355 1 0.266667 0.5 0.0651004 -2.83187 0.0050067
361 1 0.316667 0.45 0.0651005 -2.83187 0.00500542
380 1 0.316667 0.55 0.0651003 -2.83187 0.00500769
382 1 0.3 0.5 0.000102792 -2.4771 24.5082
383 1 0.35 0.45 0.000102897 -2.4771 24.5081
384 1 0.35 0.55 0.000102837 -2.4771 24.5082
509 1 0.366667 0.5 0.0651006 -2.83187 0.00500446
510 1 0.4 0.5 0.000102739 -2.4771 24.5082
511 1 0.416667 0.45 0.0651003 -2.83187 0.00500792
512 1 0.416667 0.55 0.0651006 -2.83187 0.00500389
515 1 0.45 0.45 0.000102666 -2.4771 24.5083
530 1 0.45 0.55 0.000102724 -2.4771 24.5082
635 1 0.466667 0.5 0.0651003 -2.83187 0.00500725
662 1 0.5 0.5 0.000102731 -2.4771 24.5082
641 1 0.516667 0.45 0.0651005 -2.83187 0.00500497
660 1 0.516667 0.55 0.0651004 -2.83187 0.00500624
663 1 0.55 0.45 0.000102744 -2.4771 24.5084
664 1 0.55 0.55 0.000102848 -2.4771 24.5081
789 1 0.566667 0.5 0.0651004 -2.83187 0.00500567
790 1 0.6 0.5 0.000102823 -2.4771 24.5082
791 1 0.616667 0.45 0.0651004 -2.83187 0.00500707
792 1 0.616667 0.55 0.0651004 -2.83187 0.00500597
795 1 0.65 0.45 0.00010268 -2.4771 24.5083
810 1 0.65 0.55 0.00010262 -2.4771 24.5084
915 1 0.666667 0.5 0.0651003 -2.83187 0.00500708
921 1 0.716667 0.45 0.0651004 -2.83187 0.0050065
940 1 0.716667 0.55 0.0651004 -2.83187 0.00500694
942 1 0.7 0.5 0.000102671 -2.4771 24.5084
944 1 0.75 0.55 0.000102751 -2.4771 24.5083
943 1 0.75 0.45 0.000102898 -2.4771 24.5082
1069 1 0.766667 0.5 0.0651005 -2.83187 0.00500473
1070 1 0.8 0.5 0.000102662 -2.4771 24.5085
1071 1 0.816667 0.45 0.0651004 -2.83187 0.00500635
1072 1 0.816667 0.55 0.0651004 -2.83187 0.00500543
1075 1 0.85 0.45 0.000102724 -2.4771 24.5084
1090 1 0.85 0.55 0.000102805 -2.4771 24.5082
1195 1 0.866667 0.5 0.0651004 -2.83187 0.00500686
1201 1 0.916666 0.45 0.0651005 -2.83187 0.0050047
1222 1 0.9 0.5 0.000102686 -2.4771 24.5083
12 1 1 0.5 0.000102664 -2.4771 24.5085
1220 1 0.916667 0.55 0.0651004 -2.83187 0.00500604
1223 1 0.95 0.45 0.000102903 -2.4771 24.5079
1224 1 0.95 0.55 0.000102658 -2.4771 24.5084
1338 1 0.966667 0.5 0.0651004 -2.83187 0.00500704
18 1 1.05497e-07 0.7 0.000102744 -2.4771 24.5083
19 1 0.0166668 0.65 0.0651004 -2.83187 0.0050065
21 1 1.68545e-07 0.6 0.000102919 -2.4771 24.508
23 1 0.0499999 0.65 0.000102556 -2.4771 24.5086
95 1 0.0666665 0.7 0.0651004 -2.83187 0.00500589
98 1 0.0666665 0.6 0.0651004 -2.83187 0.00500618
99 1 0.1 0.6 0.000102852 -2.4771 24.5083
101 1 0.116667 0.65 0.0651004 -2.83187 0.00500713
114 1 0.0999999 0.7 0.000102892 -2.4771 24.5081
115 1 0.15 0.65 0.000102757 -2.4771 24.5084
245 1 0.166667 0.7 0.0651005 -2.83187 0.00500526
226 1 0.166667 0.6 0.0651004 -2.83187 0.00500678
246 1 0.2 0.7 0.000102873 -2.4771 24.5082
247 1 0.216667 0.65 0.0651004 -2.83187 0.00500769
249 1 0.2 0.6 0.000102737 -2.4771 24.5083
251 1 0.25 0.65 0.000102729 -2.4771 24.5083
375 1 0.266667 0.7 0.0651004 -2.83187 0.00500658
378 1 0.266667 0.6 0.0651005 -2.83187 0.00500511
379 1 0.3 0.6 0.000102763 -2.4771 24.5083
381 1 0.316666 0.65 0.0651005 -2.83187 0.00500585
394 1 0.3 0.7 0.00010278 -2.4771 24.5083
395 1 0.35 0.65 0.000102854 -2.4771 24.5082
506 1 0.366667 0.6 0.0651004 -2.83187 0.00500741
525 1 0.366667 0.7 0.0651002 -2.83187 0.0050086
526 1 0.4 0.7 0.000102623 -2.4771 24.5085
529 1 0.4 0.6 0.000102868 -2.4771 24.5081
527 1 0.416667 0.65 0.0651004 -2.83187 0.00500683
531 1 0.45 0.65 0.00010287 -2.4771 24.5081
655 1 0.466667 0.7 0.0651005 -2.83187 0.00500596
658 1 0.466667 0.6 0.0651004 -2.83187 0.00500656
659 1 0.5 0.6 0.000102658 -2.4771 24.5084
674 1 0.5 0.7 0.000102757 -2.4771 24.5083
661 1 0.516667 0.65 0.0651004 -2.83187 0.00500545
675 1 0.55 0.65 0.00010274 -2.4771 24.5083
786 1 0.566667 0.6 0.0651004 -2.83187 0.00500673
805 1 0.566667 0.7 0.0651003 -2.83187 0.00500747
806 1 0.6 0.7 0.000102768 -2.4771 24.5084
807 1 0.616667 0.65 0.0651004 -2.83187 0.00500621
809 1 0.6 0.6 0.000102716 -2.4771 24.5081
811 1 0.65 0.65 0.000102744 -2.4771 24.5082
938 1 0.666667 0.6 0.0651004 -2.83187 0.00500607
935 1 0.666667 0.7 0.0651004 -2.83187 0.00500636
939 1 0.7 0.6 0.000102723 -2.4771 24.5082
941 1 0.716667 0.65 0.0651004 -2.83187 0.00500582
954 1 0.7 0.7 0.000102772 -2.4771 24.5083
955 1 0.75 0.65 0.000102652 -2.4771 24.5083
1066 1 0.766667 0.6 0.0651004 -2.83187 0.00500565
1085 1 0.766667 0.7 0.0651003 -2.83187 0.00500747
1086 1 0.8 0.7 0.000102712 -2.4771 24.5083
1087 1 0.816667 0.65 0.0651003 -2.83187 0.0050076
1089 1 0.8 0.6 0.000102699 -2.4771 24.5084
1091 1 0.85 0.65 0.000102812 -2.4771 24.5081
1215 1 0.866667 0.7 0.0651004 -2.83187 0.00500697
1218 1 0.866667 0.6 0.0651005 -2.83187 0.00500511
1219 1 0.9 0.6 0.000102913 -2.4771 24.5081
1234 1 0.9 0.7 0.000102717 -2.4771 24.5083
1221 1 0.916667 0.65 0.0651005 -2.83187 0.00500618
1235 1 0.95 0.65 0.00010283 -2.4771 24.5082
1335 1 0.966667 0.6 0.0651004 -2.83187 0.00500621
1348 1 0.966667 0.7 0.0651004 -2.83187 0.00500719
20 1 0.0166667 0.75 0.0651005 -2.83187 0.00500633
25 1 0.0166666 0.85 0.0651005 -2.83187 0.00500637
28 1 0.0499999 0.75 0.00010271 -2.4771 24.5084
29 1 0.0499999 0.85 0.000102834 -2.4771 24.5082
110 1 0.0666666 0.8 0.0651004 -2.83187 0.00500625
111 1 0.0999998 0.8 0.00010284 -2.4771 24.5082
112 1 0.116667 0.75 0.0651004 -2.83187 0.0050066
113 1 0.116667 0.85 0.0651004 -2.83187 0.00500579
116 1 0.15 0.75 0.000102659 -2.4771 24.5084
119 1 0.15 0.85 0.000102682 -2.4771 24.5083
242 1 0.166667 0.8 0.0651004 -2.83187 0.00500695
248 1 0.216666 0.75 0.0651005 -2.83187 0.00500563
255 1 0.216667 0.85 0.0651003 -2.83187 0.00500799
257 1 0.2 0.8 0.000102671 -2.4771 24.5083
259 1 0.25 0.85 0.00010273 -2.4771 24.5083
258 1 0.25 0.75 0.000102843 -2.4771 24.5081
390 1 0.266667 0.8 0.0651005 -2.83187 0.00500604
391 1 0.3 0.8 0.000102823 -2.4771 24.5083
392 1 0.316667 0.75 0.0651004 -2.83187 0.00500652
393 1 0.316667 0.85 0.0651006 -2.83187 0.00500537
396 1 0.35 0.75 0.000102686 -2.4771 24.5084
399 1 0.35 0.85 0.000102811 -2.4771 24.5082
522 1 0.366667 0.8 0.0651003 -2.83187 0.00500845
535 1 0.416667 0.85 0.0651004 -2.83187 0.00500745
537 1 0.4 0.8 0.000102715 -2.4771 24.5083
528 1 0.416667 0.75 0.0651004 -2.83187 0.00500605
538 1 0.45 0.75 0.000102864 -2.4771 24.5082
539 1 0.45 0.85 0.000102809 -2.4771 24.5082
670 1 0.466667 0.8 0.0651006 -2.83187 0.00500417
671 1 0.5 0.8 0.000102768 -2.4771 24.5082
672 1 0.516667 0.75 0.0651005 -2.83187 0.00500573
673 1 0.516667 0.85 0.0651004 -2.83187 0.00500671
676 1 0.55 0.75 0.000102876 -2.4771 24.5082
679 1 0.55 0.85 0.000102656 -2.4771 24.5084
802 1 0.566667 0.8 0.0651005 -2.83187 0.00500635
808 1 0.616666 0.75 0.0651005 -2.83187 0.00500614
815 1 0.616667 0.85 0.0651005 -2.83187 0.00500643
817 1 0.6 0.8 0.000102969 -2.4771 24.5081
818 1 0.65 0.75 0.000102921 -2.4771 24.5082
819 1 0.65 0.85 0.000102934 -2.4771 24.5081
950 1 0.666667 0.8 0.0651005 -2.83187 0.00500571
951 1 0.7 0.8 0.000102802 -2.4771 24.5082
952 1 0.716667 0.75 0.0651005 -2.83187 0.00500518
953 1 0.716666 0.85 0.0651003 -2.83187 0.00500756
956 1 0.75 0.75 0.000102701 -2.4771 24.5084
959 1 0.75 0.85 0.000102845 -2.4771 24.5081
1082 1 0.766667 0.8 0.0651005 -2.83187 0.00500503
1088 1 0.816667 0.75 0.0651004 -2.83187 0.00500694
1095 1 0.816667 0.85 0.0651005 -2.83187 0.00500509
1097 1 0.8 0.8 0.00010273 -2.4771 24.5084
1098 1 0.85 0.75 0.000102764 -2.4771 24.5083
1099 1 0.85 0.85 0.000102907 -2.4771 24.5081
1230 1 0.866667 0.8 0.0651005 -2.83187 0.00500481
1231 1 0.9 0.8 0.000102721 -2.4771 24.5083
1233 1 0.916667 0.85 0.0651003 -2.83187 0.00500794
27 1 1 0.8 0.000102894 -2.4771 24.5081
1232 1 0.916667 0.75 0.0651004 -2.83187 0.00500663
1236 1 0.95 0.75 0.000102788 -2.4771 24.5081
1239 1 0.95 0.85 0.000102883 -2.4771 24.5081
1345 1 0.966667 0.8 0.0651006 -2.83187 0.00500422
24 1 1.49884e-07 0.9 0.000102825 -2.4771 24.5082
26 1 0.0166667 0.95 0.0651005 -2.83187 0.00500567
30 1 0.0500002 0.95 0.000102709 -2.4771 24.5083
107 1 0.0666668 0.9 0.0651004 -2.83187 0.00500675
117 1 0.116667 0.95 0.0651003 -2.83187 0.00500791
118 1 0.0999998 0.9 0.000102805 -2.4771 24.5082
120 1 0.15 0.95 0.00010273 -2.4771 24.5083
253 1 0.166667 0.9 0.0651005 -2.83187 0.00500509
155 1 0.166667 1 0.0651004 -2.83187 0.00500667
254 1 0.2 0.9 0.000102668 -2.4771 24.5083
256 1 0.216667 0.95 0.0651003 -2.83187 0.00500787
260 1 0.25 0.95 0.000102822 -2.4771 24.508
387 1 0.266667 0.9 0.0651006 -2.83187 0.00500366
397 1 0.316667 0.95 0.0651005 -2.83187 0.00500664
398 1 0.3 0.9 0.00010296 -2.4771 24.5081
435 1 0.366667 1 0.0651004 -2.83187 0.00500739
400 1 0.35 0.95 0.000102843 -2.4771 24.5083
533 1 0.366667 0.9 0.0651006 -2.83187 0.00500491
534 1 0.4 0.9 0.000102824 -2.4771 24.5083
536 1 0.416667 0.95 0.0651006 -2.83187 0.00500439
587 1 0.466667 1 0.0651004 -2.83187 0.00500693
540 1 0.45 0.95 0.000102858 -2.4771 24.5083
667 1 0.466667 0.9 0.0651004 -2.83187 0.00500655
678 1 0.5 0.9 0.000102688 -2.4771 24.5083
677 1 0.516667 0.95 0.0651004 -2.83187 0.00500564
680 1 0.55 0.95 0.000102784 -2.4771 24.5083
813 1 0.566667 0.9 0.0651003 -2.83187 0.00500721
742 1 0.6 1 0.000102873 -2.4771 24.508
814 1 0.6 0.9 0.000102636 -2.4771 24.5084
816 1 0.616667 0.95 0.0651005 -2.83187 0.00500461
820 1 0.65 0.95 0.000102786 -2.4771 24.5082
947 1 0.666667 0.9 0.0651004 -2.83187 0.00500653
868 1 0.7 1 0.000102767 -2.4771 24.5083
957 1 0.716667 0.95 0.0651003 -2.83187 0.00500716
958 1 0.7 0.9 0.000102601 -2.4771 24.5085
960 1 0.75 0.95 0.0001027 -2.4771 24.5084
995 1 0.766667 1 0.0651004 -2.83187 0.00500682
1022 1 0.8 1 0.00010291 -2.4771 24.5082
1093 1 0.766667 0.9 0.0651005 -2.83187 0.00500615
1094 1 0.8 0.9 0.000102901 -2.4771 24.5082
1096 1 0.816667 0.95 0.0651004 -2.83187 0.00500717
1100 1 0.85 0.95 0.000102666 -2.4771 24.5084
1227 1 0.866667 0.9 0.0651005 -2.83187 0.00500532
1238 1 0.9 0.9 0.00010277 -2.4771 24.5083
1237 1 0.916667 0.95 0.0651004 -2.83187 0.00500656
1240 1 0.95 0.95 0.000102714 -2.4771 24.5084
1350 1 0.966667 0.9 0.0651005 -2.83187 0.00500585
36 1 0.0500001 0.0499997 0.19741 -2.85004 3.81455e-08
44 1 0.0333332 0.0999998 0.131243 -2.8512 2.32287e-06
46 1 0.0833335 0.0499999 0.131243 -2.8512 2.32558e-06
150 1 0.1 0.1 0.19741 -2.85004 3.56557e-08
151 1 0.133333 0.1 0.131243 -2.8512 2.37768e-06
152 1 0.15 0.0499999 0.19741 -2.85004 3.4201e-08
156 1 0.183333 0.05 0.131243 -2.8512 2.34394e-06
280 1 0.2 0.1 0.19741 -2.85004 3.89523e-08
284 1 0.233333 1.11071e-07 0.131243 -2.8512 2.34684e-06
285 1 0.25 0.0499999 0.19741 -2.85004 3.55904e-08
303 1 0.233333 0.1 0.131243 -2.8512 2.33093e-06
305 1 0.283333 0.0500002 0.131243 -2.8512 2.30949e-06
430 1 0.3 0.1 0.19741 -2.85004 3.77519e-08
431 1 0.333333 0.1 0.131243 -2.8512 2.36987e-06
434 1 0.333333 2.24051e-07 0.131243 -2.8512 2.35745e-06
432 1 0.35 0.0500003 0.19741 -2.85004 3.56098e-08
436 1 0.383333 0.0499999 0.131243 -2.8512 2.34307e-06
560 1 0.4 0.0999997 0.19741 -2.85004 3.68599e-08
563 1 0.4 7.79891e-08 0.19741 -2.85004 3.38663e-08
564 1 0.433333 3.30343e-07 0.131243 -2.8512 2.38502e-06
565 1 0.45 0.0499997 0.19741 -2.85003 3.51003e-08
583 1 0.433333 0.1 0.131243 -2.8512 2.33404e-06
585 1 0.483333 0.05 0.131243 -2.8512 2.38658e-06
710 1 0.5 0.0999998 0.19741 -2.85004 3.76452e-08
711 1 0.533333 0.1 0.131243 -2.8512 2.30614e-06
712 1 0.55 0.0499998 0.19741 -2.85004 3.61253e-08
714 1 0.533333 1.10326e-07 0.131243 -2.8512 2.32247e-06
716 1 0.583333 0.0499998 0.131243 -2.8512 2.35245e-06
840 1 0.6 0.1 0.19741 -2.85004 3.65333e-08
844 1 0.633333 2.24635e-08 0.131243 -2.8512 2.35982e-06
845 1 0.65 0.0499997 0.19741 -2.85004 4.2398e-08
863 1 0.633333 0.1 0.131243 -2.8512 2.33484e-06
865 1 0.683333 0.0500003 0.131243 -2.8512 2.37639e-06
975 1 0.7 1.52396e-07 0.19741 -2.85004 3.64944e-08
990 1 0.7 0.0999998 0.19741 -2.85003 3.46072e-08
991 1 0.733333 0.1 0.131243 -2.8512 2.34069e-06
992 1 0.75 0.0499997 0.19741 -2.85004 3.96853e-08
994 1 0.733333 7.73562e-08 0.131243 -2.8512 2.34703e-06
996 1 0.783333 0.0499999 0.131243 -2.8512 2.36213e-06
1120 1 0.8 0.1 0.19741 -2.85004 3.51152e-08
1123 1 0.8 3.23937e-07 0.19741 -2.85004 3.93299e-08
1143 1 0.833333 0.1 0.131243 -2.8512 2.32212e-06
1125 1 0.85 0.05 0.19741 -2.85004 3.5688e-08
1145 1 0.883333 0.0500002 0.131243 -2.8512 2.36285e-06
1255 1 0.9 1.558e-07 0.19741 -2.85004 3.15304e-08
1270 1 0.9 0.1 0.19741 -2.85004 4.08438e-08
31 1 1 0.1 0.19741 -2.85004 3.42006e-08
1271 1 0.933333 0.0999997 0.131243 -2.8512 2.34394e-06
1272 1 0.95 0.0500003 0.19741 -2.85003 4.01458e-08
1274 1 0.933333 1.27782e-07 0.131243 -2.8512 2.35477e-06
1276 1 0.983333 0.0500001 0.131243 -2.8512 2.32807e-06
40 1 1.2092e-07 0.2 0.19741 -2.85004 3.54989e-08
41 1 0.0333335 0.2 0.131243 -2.8512 2.31891e-06
42 1 0.0500001 0.15 0.19741 -2.85004 3.90407e-08
43 1 0.05 0.25 0.19741 -2.85004 3.69228e-08
47 1 0.0833333 0.15 0.131243 -2.8512 2.34953e-06
60 1 0.0833333 0.25 0.131243 -2.8512 2.34383e-06
147 1 0.0999999 0.2 0.19741 -2.85004 3.83868e-08
153 1 0.15 0.15 0.19741 -2.85003 3.2503e-08
172 1 0.15 0.25 0.19741 -2.85004 3.35617e-08
174 1 0.133333 0.2 0.131243 -2.8512 2.37314e-06
176 1 0.183333 0.15 0.131243 -2.8512 2.32556e-06
177 1 0.183333 0.25 0.131243 -2.8512 2.36398e-06
299 1 0.2 0.2 0.19741 -2.85004 3.77498e-08
300 1 0.233333 0.2 0.131243 -2.8512 2.34004e-06
301 1 0.25 0.15 0.19741 -2.85004 3.78206e-08
302 1 0.25 0.25 0.19741 -2.85004 4.03244e-08
306 1 0.283333 0.15 0.131243 -2.8512 2.34547e-06
329 1 0.283333 0.25 0.131243 -2.8512 2.35134e-06
427 1 0.3 0.2 0.19741 -2.85004 3.52823e-08
454 1 0.333333 0.2 0.131243 -2.8512 2.38035e-06
433 1 0.35 0.15 0.19741 -2.85004 3.88437e-08
452 1 0.35 0.25 0.19741 -2.85003 3.751e-08
456 1 0.383333 0.15 0.131243 -2.8512 2.32849e-06
457 1 0.383333 0.25 0.131243 -2.8512 2.34269e-06
579 1 0.4 0.2 0.19741 -2.85004 3.32719e-08
580 1 0.433333 0.2 0.131243 -2.8512 2.34621e-06
581 1 0.45 0.15 0.19741 -2.85004 3.97836e-08
582 1 0.45 0.25 0.19741 -2.85004 4.16279e-08
586 1 0.483333 0.15 0.131243 -2.8512 2.33163e-06
609 1 0.483333 0.25 0.131243 -2.8512 2.34598e-06
707 1 0.5 0.2 0.19741 -2.85004 3.6497e-08
713 1 0.55 0.15 0.19741 -2.85004 4.12849e-08
732 1 0.55 0.25 0.19741 -2.85004 3.83584e-08
734 1 0.533333 0.2 0.131243 -2.8512 2.32758e-06
737 1 0.583333 0.25 0.131243 -2.8512 2.34277e-06
736 1 0.583333 0.15 0.131243 -2.8512 2.35926e-06
859 1 0.6 0.2 0.19741 -2.85004 3.46122e-08
860 1 0.633333 0.2 0.131243 -2.8512 2.32119e-06
861 1 0.65 0.15 0.19741 -2.85004 3.26932e-08
862 1 0.65 0.25 0.19741 -2.85004 3.98487e-08
866 1 0.683333 0.15 0.131243 -2.8512 2.34659e-06
889 1 0.683333 0.25 0.131243 -2.8512 2.36627e-06
987 1 0.7 0.2 0.19741 -2.85004 3.71529e-08
993 1 0.75 0.15 0.19741 -2.85004 4.43747e-08
1012 1 0.75 0.25 0.19741 -2.85004 3.98422e-08
1014 1 0.733333 0.2 0.131243 -2.8512 2.37443e-06
1016 1 0.783333 0.15 0.131243 -2.8512 2.35436e-06
1017 1 0.783333 0.25 0.131243 -2.8512 2.3164e-06
1139 1 0.8 0.2 0.19741 -2.85004 3.15625e-08
1140 1 0.833333 0.2 0.131243 -2.8512 2.35645e-06
1141 1 0.85 0.15 0.19741 -2.85004 3.92298e-08
1142 1 0.85 0.25 0.19741 -2.85004 3.86059e-08
1146 1 0.883333 0.15 0.131243 -2.8512 2.32491e-06
1169 1 0.883333 0.25 0.131243 -2.8512 2.3367e-06
1267 1 0.9 0.2 0.19741 -2.85004 3.35571e-08
1273 1 0.95 0.15 0.19741 -2.85004 3.83347e-08
1292 1 0.95 0.25 0.19741 -2.85004 3.57468e-08
1294 1 0.933333 0.2 0.131243 -2.8512 2.35483e-06
1296 1 0.983333 0.15 0.131243 -2.8512 2.35655e-06
1297 1 0.983333 0.25 0.131243 -2.8512 2.36512e-06
54 1 1.27527e-07 0.4 0.19741 -2.85004 3.62589e-08
55 1 0.0333334 0.4 0.131243 -2.8512 2.34198e-06
56 1 0.0500002 0.35 0.19741 -2.85004 3.82647e-08
58 1 0.0333334 0.3 0.131243 -2.8512 2.38424e-06
61 1 0.0833334 0.35 0.131243 -2.8512 2.34259e-06
167 1 0.0999999 0.4 0.19741 -2.85004 4.13614e-08
170 1 0.1 0.3 0.19741 -2.85004 3.9826e-08
171 1 0.133333 0.3 0.131243 -2.8512 2.34386e-06
173 1 0.15 0.35 0.19741 -2.85004 3.91474e-08
201 1 0.133333 0.4 0.131243 -2.8512 2.36375e-06
203 1 0.183333 0.35 0.131243 -2.8512 2.36243e-06
296 1 0.2 0.3 0.19741 -2.85004 3.1697e-08
323 1 0.2 0.4 0.19741 -2.85004 3.98703e-08
324 1 0.233333 0.4 0.131243 -2.8512 2.3503e-06
325 1 0.25 0.35 0.19741 -2.85004 3.7758e-08
327 1 0.233333 0.3 0.131243 -2.8512 2.33392e-06
330 1 0.283333 0.35 0.131243 -2.8512 2.362e-06
447 1 0.3 0.4 0.19741 -2.85004 3.75719e-08
450 1 0.3 0.3 0.19741 -2.85004 3.78164e-08
451 1 0.333333 0.3 0.131243 -2.8512 2.37523e-06
481 1 0.333333 0.4 0.131243 -2.8512 2.34378e-06
453 1 0.35 0.35 0.19741 -2.85004 3.548e-08
483 1 0.383333 0.35 0.131243 -2.8512 2.36031e-06
576 1 0.4 0.3 0.19741 -2.85004 3.51024e-08
603 1 0.4 0.4 0.19741 -2.85004 3.25649e-08
604 1 0.433333 0.4 0.131243 -2.8512 2.33717e-06
605 1 0.45 0.35 0.19741 -2.85004 3.80488e-08
607 1 0.433334 0.3 0.131243 -2.8512 2.31761e-06
610 1 0.483333 0.35 0.131243 -2.8512 2.37371e-06
727 1 0.5 0.4 0.19741 -2.85004 3.1665e-08
730 1 0.5 0.3 0.19741 -2.85004 3.8765e-08
731 1 0.533333 0.3 0.131243 -2.8512 2.36723e-06
733 1 0.55 0.35 0.19741 -2.85003 3.51093e-08
761 1 0.533333 0.4 0.131243 -2.8512 2.35568e-06
763 1 0.583333 0.35 0.131243 -2.8512 2.33838e-06
856 1 0.6 0.3 0.19741 -2.85004 3.66148e-08
883 1 0.6 0.4 0.19741 -2.85004 4.2949e-08
884 1 0.633333 0.4 0.131243 -2.8512 2.33397e-06
885 1 0.65 0.35 0.19741 -2.85003 3.46815e-08
887 1 0.633333 0.3 0.131243 -2.8512 2.3961e-06
890 1 0.683333 0.35 0.131243 -2.8512 2.31665e-06
1007 1 0.7 0.4 0.19741 -2.85004 3.82809e-08
1010 1 0.7 0.3 0.19741 -2.85004 3.23129e-08
1011 1 0.733333 0.3 0.131243 -2.8512 2.33409e-06
1041 1 0.733333 0.4 0.131243 -2.8512 2.35486e-06
1013 1 0.75 0.35 0.19741 -2.85004 3.32389e-08
1043 1 0.783333 0.35 0.131243 -2.8512 2.38083e-06
1136 1 0.8 0.3 0.19741 -2.85004 4.07735e-08
1163 1 0.8 0.4 0.19741 -2.85004 3.59059e-08
1167 1 0.833333 0.3 0.131243 -2.8512 2.37601e-06
1164 1 0.833333 0.4 0.131243 -2.8512 2.34247e-06
1165 1 0.85 0.35 0.19741 -2.85004 3.985e-08
1170 1 0.883333 0.35 0.131243 -2.8512 2.37938e-06
1287 1 0.9 0.4 0.19741 -2.85004 3.80106e-08
1290 1 0.9 0.3 0.19741 -2.85004 3.36402e-08
37 1 1 0.3 0.19741 -2.85004 3.40407e-08
1291 1 0.933333 0.3 0.131243 -2.8512 2.29884e-06
1293 1 0.95 0.35 0.19741 -2.85004 4.147e-08
1316 1 0.933333 0.4 0.131243 -2.8512 2.36286e-06
1318 1 0.983333 0.35 0.131243 -2.8512 2.31977e-06
51 1 6.51706e-08 0.5 0.19741 -2.85004 3.62026e-08
57 1 0.0500001 0.45 0.19741 -2.85003 3.61827e-08
74 1 0.0499999 0.55 0.19741 -2.85004 3.38543e-08
76 1 0.0333333 0.5 0.131243 -2.8512 2.36287e-06
78 1 0.0833333 0.45 0.131243 -2.8512 2.35453e-06
79 1 0.0833332 0.55 0.131243 -2.8512 2.34513e-06
197 1 0.1 0.5 0.19741 -2.85004 3.67074e-08
198 1 0.133333 0.5 0.131243 -2.8512 2.34541e-06
199 1 0.15 0.45 0.19741 -2.85004 3.6897e-08
200 1 0.15 0.55 0.19741 -2.85004 3.9172e-08
204 1 0.183333 0.45 0.131243 -2.8512 2.34458e-06
227 1 0.183333 0.55 0.131243 -2.8512 2.38067e-06
320 1 0.2 0.5 0.19741 -2.85003 3.33965e-08
326 1 0.25 0.45 0.19741 -2.85004 3.49568e-08
352 1 0.25 0.55 0.19741 -2.85004 4.07851e-08
354 1 0.233333 0.5 0.131243 -2.8512 2.34748e-06
356 1 0.283333 0.45 0.131243 -2.8512 2.31165e-06
357 1 0.283333 0.55 0.131243 -2.8512 2.33081e-06
477 1 0.3 0.5 0.19741 -2.85004 3.40073e-08
478 1 0.333333 0.5 0.131243 -2.8512 2.39634e-06
479 1 0.35 0.45 0.19741 -2.85004 3.23031e-08
480 1 0.35 0.55 0.19741 -2.85004 4.15375e-08
484 1 0.383333 0.45 0.131243 -2.8512 2.33046e-06
507 1 0.383333 0.55 0.131243 -2.8512 2.33404e-06
600 1 0.4 0.5 0.19741 -2.85004 3.66519e-08
606 1 0.45 0.45 0.19741 -2.85004 4.04607e-08
632 1 0.45 0.55 0.19741 -2.85004 3.44128e-08
634 1 0.433333 0.5 0.131243 -2.8512 2.34961e-06
636 1 0.483333 0.45 0.131243 -2.8512 2.31958e-06
637 1 0.483333 0.55 0.131243 -2.8512 2.36006e-06
757 1 0.5 0.5 0.19741 -2.85004 3.85666e-08
758 1 0.533333 0.5 0.131243 -2.8512 2.32199e-06
759 1 0.55 0.45 0.19741 -2.85004 3.7281e-08
760 1 0.55 0.55 0.19741 -2.85003 4.15149e-08
764 1 0.583333 0.45 0.131242 -2.8512 2.41154e-06
787 1 0.583333 0.55 0.131243 -2.8512 2.3723e-06
880 1 0.6 0.5 0.197409 -2.85004 3.27522e-08
886 1 0.65 0.45 0.19741 -2.85004 4.41138e-08
912 1 0.65 0.55 0.19741 -2.85004 3.9793e-08
914 1 0.633333 0.5 0.131243 -2.8512 2.29559e-06
916 1 0.683333 0.45 0.131243 -2.8512 2.35031e-06
917 1 0.683333 0.55 0.131243 -2.8512 2.35628e-06
1037 1 0.7 0.5 0.19741 -2.85004 3.61034e-08
1038 1 0.733333 0.5 0.131243 -2.8512 2.35649e-06
1039 1 0.75 0.45 0.19741 -2.85004 3.24615e-08
1040 1 0.75 0.55 0.19741 -2.85004 3.52877e-08
1044 1 0.783333 0.45 0.131243 -2.8512 2.32411e-06
1067 1 0.783333 0.55 0.131243 -2.8512 2.35694e-06
1160 1 0.8 0.5 0.19741 -2.85004 3.73091e-08
1194 1 0.833333 0.5 0.131243 -2.8512 2.34657e-06
1166 1 0.85 0.45 0.19741 -2.85004 3.82123e-08
1192 1 0.85 0.55 0.19741 -2.85004 3.46174e-08
1196 1 0.883333 0.45 0.131243 -2.8512 2.31626e-06
1197 1 0.883333 0.55 0.131243 -2.8512 2.35859e-06
1312 1 0.9 0.5 0.19741 -2.85004 3.36844e-08
1313 1 0.933333 0.5 0.131243 -2.8512 2.32078e-06
1314 1 0.95 0.45 0.19741 -2.85004 3.40515e-08
1315 1 0.95 0.55 0.19741 -2.85004 3.75364e-08