ITEM: TIMESTEP
115
ITEM: NUMBER OF ATOMS
3200
ITEM: BOX BOUNDS pp pp ss
0.0000000000000000e+00 5.0092067021360698e+01
0.0000000000000000e+00 2.8920668379047399e+01
-1.5671243861047840e-01 3.5533785112952430e+01
ITEM: ATOMS id type xs ys zs c_peratom c_csym
1 1 1.55566e-07 0.0999997 0.000102763 -2.4771 24.5082
2 1 0.0166667 0.0500003 0.0651005 -2.83187 0.00500472
5 1 0.0499998 0.0500001 0.000102696 -2.4771 24.5083
45 1 0.0666666 0.0999999 0.0651005 -2.83187 0.00500482
48 1 0.0666665 1.55797e-07 0.0651004 -2.83187 0.00500683
49 1 0.0999999 1.02684e-07 0.000102643 -2.4771 24.5085
50 1 0.116667 0.0499997 0.0651004 -2.83187 0.00500609
66 1 0.0999998 0.0999999 0.000102771 -2.4771 24.5083
67 1 0.15 0.0500002 0.000102911 -2.4771 24.5082
178 1 0.166667 0.1 0.0651004 -2.83187 0.00500709
179 1 0.2 0.1 0.000102748 -2.4771 24.5082
180 1 0.216667 0.0500002 0.0651004 -2.83187 0.00500577
182 1 0.2 1.84467e-07 0.000102793 -2.4771 24.5082
183 1 0.25 0.0500001 0.000102647 -2.4771 24.5084
304 1 0.266667 0.0999997 0.0651003 -2.83187 0.00500775
307 1 0.266666 3.81866e-09 0.0651005 -2.83187 0.00500582
308 1 0.3 7.36748e-08 0.000102829 -2.4771 24.5083
309 1 0.316666 0.0499998 0.0651006 -2.83187 0.00500488
335 1 0.3 0.0999999 0.000102784 -2.4771 24.5083
336 1 0.35 0.0499997 0.000102955 -2.4771 24.5081
458 1 0.366667 0.0999999 0.0651004 -2.83187 0.00500732
459 1 0.4 0.1 0.000102679 -2.4771 24.5084
460 1 0.416666 0.0500002 0.0651006 -2.83187 0.00500408
462 1 0.4 2.26768e-07 0.000102794 -2.4771 24.5083
463 1 0.45 0.05 0.000102911 -2.4771 24.5081
584 1 0.466667 0.1 0.0651005 -2.83187 0.00500528
588 1 0.5 7.99778e-08 0.000102698 -2.4771 24.5084
615 1 0.5 0.0999999 0.000102865 -2.4771 24.5082
589 1 0.516667 0.0499997 0.0651004 -2.83187 0.00500649
616 1 0.55 0.0500002 0.000102804 -2.4771 24.5083
715 1 0.566667 1.20563e-09 0.0651004 -2.83187 0.00500717
738 1 0.566667 0.1 0.0651005 -2.83187 0.00500563
739 1 0.6 0.1 0.000102932 -2.4771 24.5081
740 1 0.616667 0.0500001 0.0651004 -2.83187 0.0050066
743 1 0.65 0.05 0.000102705 -2.4771 24.5084
864 1 0.666667 0.1 0.0651004 -2.83187 0.00500674
867 1 0.666667 6.82114e-08 0.0651004 -2.83187 0.00500582
869 1 0.716667 0.0499999 0.0651005 -2.83187 0.00500586
895 1 0.7 0.1 0.000102795 -2.4771 24.5083
896 1 0.75 0.0500003 0.0001029 -2.4771 24.5081
1018 1 0.766667 0.1 0.0651004 -2.83187 0.00500733
1019 1 0.8 0.0999999 0.000102834 -2.4771 24.5082
1020 1 0.816667 0.05 0.0651006 -2.83187 0.00500429
1023 1 0.85 0.0499997 0.000102698 -2.4771 24.5083
1144 1 0.866667 0.1 0.0651004 -2.83187 0.00500728
1147 1 0.866667 2.39766e-07 0.0651005 -2.83187 0.00500486
1148 1 0.9 9.55149e-08 0.000102837 -2.4771 24.5082
1149 1 0.916667 0.0499998 0.0651004 -2.83187 0.00500627
1175 1 0.9 0.1 0.000102865 -2.4771 24.5081
4 1 1 3.22296e-08 0.000102844 -2.4771 24.5082
1176 1 0.95 0.0499998 0.000102726 -2.4771 24.5083
1275 1 0.966667 5.9967e-08 0.0651004 -2.83187 0.00500673
1298 1 0.966667 0.0999997 0.0651004 -2.83187 0.00500795
3 1 0.0166665 0.15 0.0651004 -2.83187 0.00500669
7 1 0.0166668 0.25 0.0651004 -2.83187 0.00500655
10 1 0.05 0.15 0.000102786 -2.4771 24.5082
11 1 0.05 0.25 0.000102671 -2.4771 24.5084
62 1 0.0666665 0.2 0.0651004 -2.83187 0.0050076
63 1 0.1 0.2 0.000102793 -2.4771 24.5082
64 1 0.116667 0.15 0.0651004 -2.83187 0.0050061
65 1 0.116667 0.25 0.0651005 -2.83187 0.00500526
68 1 0.15 0.15 0.000102756 -2.4771 24.5084
85 1 0.15 0.25 0.000102949 -2.4771 24.508
175 1 0.166667 0.2 0.0651005 -2.83187 0.00500492
181 1 0.216667 0.15 0.0651005 -2.83187 0.00500526
207 1 0.216667 0.25 0.0651003 -2.83187 0.00500819
209 1 0.2 0.2 0.000102764 -2.4771 24.5082
210 1 0.25 0.15 0.000102717 -2.4771 24.5083
211 1 0.25 0.25 0.000102793 -2.4771 24.5082
331 1 0.266667 0.2 0.0651004 -2.83187 0.00500572
332 1 0.3 0.2 0.000102697 -2.4771 24.5084
333 1 0.316667 0.15 0.0651004 -2.83187 0.00500664
334 1 0.316667 0.25 0.0651003 -2.83187 0.00500664
337 1 0.35 0.15 0.000102817 -2.4771 24.5081
363 1 0.35 0.25 0.000102764 -2.4771 24.5083
455 1 0.366667 0.2 0.0651004 -2.83187 0.00500576
461 1 0.416667 0.15 0.0651004 -2.83187 0.00500602
489 1 0.4 0.2 0.00010265 -2.4771 24.5083
487 1 0.416667 0.25 0.0651004 -2.83187 0.00500607
490 1 0.45 0.15 0.000102628 -2.4771 24.5084
491 1 0.45 0.25 0.000102743 -2.4771 24.5083
611 1 0.466667 0.2 0.0651003 -2.83187 0.00500758
612 1 0.5 0.2 0.000102656 -2.4771 24.5084
613 1 0.516667 0.15 0.0651004 -2.83187 0.00500664
614 1 0.516667 0.25 0.0651005 -2.83187 0.00500514
617 1 0.55 0.15 0.000102698 -2.4771 24.5085
643 1 0.55 0.25 0.000102805 -2.4771 24.5082
735 1 0.566666 0.2 0.0651004 -2.83187 0.00500743
741 1 0.616667 0.15 0.0651005 -2.83187 0.00500649
767 1 0.616667 0.25 0.0651006 -2.83187 0.00500416
769 1 0.6 0.2 0.000102822 -2.4771 24.5083
770 1 0.65 0.15 0.000102665 -2.4771 24.5084
771 1 0.65 0.25 0.000102917 -2.4771 24.5082
891 1 0.666667 0.2 0.0651004 -2.83187 0.00500709
892 1 0.7 0.2 0.000102877 -2.4771 24.5081
893 1 0.716667 0.15 0.0651005 -2.83187 0.00500655
894 1 0.716667 0.25 0.0651005 -2.83187 0.00500508
897 1 0.75 0.15 0.000102875 -2.4771 24.5082
923 1 0.75 0.25 0.000102776 -2.4771 24.5082
1015 1 0.766667 0.2 0.0651004 -2.83187 0.00500641
1021 1 0.816667 0.15 0.0651004 -2.83187 0.00500601
1047 1 0.816667 0.25 0.0651004 -2.83187 0.00500676
1049 1 0.8 0.2 0.000102661 -2.4771 24.5084
1050 1 0.85 0.15 0.000102585 -2.4771 24.5086
1051 1 0.85 0.25 0.000102923 -2.4771 24.5082
1171 1 0.866667 0.2 0.0651005 -2.83187 0.0050057
1172 1 0.9 0.2 0.000102884 -2.4771 24.5082
9 1 1 0.2 0.00010266 -2.4771 24.5084
1173 1 0.916667 0.15 0.0651006 -2.83187 0.00500543
1174 1 0.916667 0.25 0.0651004 -2.83187 0.00500725
1177 1 0.95 0.15 0.000102893 -2.4771 24.5082
1203 1 0.95 0.25 0.000102852 -2.4771 24.5081
1295 1 0.966667 0.2 0.0651005 -2.83187 0.00500465
6 1 6.51908e-08 0.3 0.000102933 -2.4771 24.508
8 1 0.0166665 0.35 0.0651005 -2.83187 0.00500584
16 1 0.05 0.35 0.00010295 -2.4771 24.5081
59 1 0.0666669 0.3 0.0651004 -2.83187 0.00500673
80 1 0.0666666 0.4 0.0651005 -2.83187 0.00500523
81 1 0.0999999 0.4 0.000102776 -2.4771 24.5082
82 1 0.116667 0.35 0.0651003 -2.83187 0.00500748
84 1 0.1 0.3 0.000102567 -2.4771 24.5085
86 1 0.15 0.35 0.000102723 -2.4771 24.5083
202 1 0.166667 0.4 0.0651004 -2.83187 0.00500604
205 1 0.166667 0.3 0.0651005 -2.83187 0.00500535
206 1 0.2 0.3 0.000102811 -2.4771 24.5082
208 1 0.216667 0.35 0.0651005 -2.83187 0.00500572
233 1 0.2 0.4 0.000102847 -2.4771 24.5082
234 1 0.25 0.35 0.000102694 -2.4771 24.5083
328 1 0.266667 0.3 0.0651004 -2.83187 0.00500648
358 1 0.266667 0.4 0.0651004 -2.83187 0.00500698
359 1 0.3 0.4 0.000102717 -2.4771 24.5083
360 1 0.316667 0.35 0.0651004 -2.83187 0.00500588
362 1 0.3 0.3 0.000102705 -2.4771 24.5082
364 1 0.35 0.35 0.0001028 -2.4771 24.5082
482 1 0.366667 0.4 0.0651005 -2.83187 0.00500532
485 1 0.366667 0.3 0.0651003 -2.83187 0.00500743
486 1 0.4 0.3 0.000102763 -2.4771 24.5082
513 1 0.4 0.4 0.000102692 -2.4771 24.5084
488 1 0.416667 0.35 0.0651004 -2.83187 0.00500662
514 1 0.45 0.35 0.000102626 -2.4771 24.5083
608 1 0.466667 0.3 0.0651004 -2.83187 0.00500655
638 1 0.466667 0.4 0.0651003 -2.83187 0.00500673
639 1 0.5 0.4 0.000102822 -2.4771 24.5081
642 1 0.5 0.3 0.000102738 -2.4771 24.5083
640 1 0.516667 0.35 0.0651003 -2.83187 0.00500722
644 1 0.55 0.35 0.000102619 -2.4771 24.5084
762 1 0.566667 0.4 0.0651003 -2.83187 0.00500714
765 1 0.566667 0.3 0.0651005 -2.83187 0.00500489
766 1 0.6 0.3 0.000102927 -2.4771 24.5081
768 1 0.616667 0.35 0.0651004 -2.83187 0.00500667
793 1 0.6 0.4 0.000102764 -2.4771 24.5083
794 1 0.65 0.35 0.000102706 -2.4771 24.5084
888 1 0.666667 0.3 0.0651005 -2.83187 0.00500576
918 1 0.666667 0.4 0.0651005 -2.83187 0.00500566
919 1 0.7 0.4 0.000102868 -2.4771 24.5081
920 1 0.716667 0.35 0.0651004 -2.83187 0.00500685
922 1 0.7 0.3 0.000102717 -2.4771 24.5084
924 1 0.75 0.35 0.000102889 -2.4771 24.5082
1042 1 0.766667 0.4 0.0651005 -2.83187 0.00500549
1045 1 0.766667 0.3 0.0651004 -2.83187 0.00500667
1046 1 0.8 0.3 0.000102792 -2.4771 24.5083
1048 1 0.816667 0.35 0.0651004 -2.83187 0.00500646
1073 1 0.8 0.4 0.000102803 -2.4771 24.5083
1074 1 0.85 0.35 0.000102932 -2.4771 24.5081
1168 1 0.866667 0.3 0.0651005 -2.83187 0.00500563
1198 1 0.866667 0.4 0.0651004 -2.83187 0.00500757
1199 1 0.9 0.4 0.000102767 -2.4771 24.5081
1202 1 0.9 0.3 0.000102707 -2.4771 24.5084
15 1 1 0.4 0.000102648 -2.4771 24.5084
1200 1 0.916667 0.35 0.0651003 -2.83187 0.00500715
1204 1 0.95 0.35 0.000102572 -2.4771 24.5085
1317 1 0.966667 0.4 0.0651005 -2.83187 0.00500436
1320 1 0.966667 0.3 0.0651005 -2.83187 0.00500641
13 1 0.0166665 0.45 0.0651003 -2.83187 0.00500757
14 1 0.0166666 0.55 0.0651004 -2.83187 0.00500658
17 1 0.0500002 0.45 0.00010277 -2.4771 24.5081
22 1 0.0500002 0.55 0.000102878 -2.4771 24.5081
77 1 0.0666668 0.5 0.0651005 -2.83187 0.00500569
83 1 0.116667 0.45 0.0651004 -2.83187 0.00500639
100 1 0.116667 0.55 0.0651005 -2.83187 0.00500547
102 1 0.0999999 0.5 0.000102729 -2.4771 24.5084
103 1 0.15 0.45 0.000102712 -2.4771 24.5083
104 1 0.15 0.55 0.000102842 -2.4771 24.5082
229 1 0.166667 0.5 0.0651004 -2.83187 0.00500704
230 1 0.2 0.5 0.000102798 -2.4771 24.5083
231 1 0.216667 0.45 0.0651004 -2.83187 0.00500634
232 1 0.216667 0.55 0.0651005 -2.83187 0.00500528
250 1 0.25 0.55 0.000102781 -2.4771 24.5082
235 1 0.25 0.45 0.00010278 -2.4771 24.5084
355 1 0.266667 0.5 0.0651004 -2.83187 0.00500667
361 1 0.316667 0.45 0.0651005 -2.83187 0.00500546
380 1 0.316667 0.55 0.0651003 -2.83187 0.00500773
382 1 0.3 0.5 0.000102811 -2.4771 24.5082
383 1 0.35 0.45 0.000102914 -2.4771 24.5081
384 1 0.35 0.55 0.00010286 -2.4771 24.5082
509 1 0.366667 0.5 0.0651006 -2.83187 0.00500438
510 1 0.4 0.5 0.000102756 -2.4771 24.5082
511 1 0.416667 0.45 0.0651003 -2.83187 0.00500798
512 1 0.416667 0.55 0.0651006 -2.83187 0.00500387
515 1 0.45 0.45 0.000102659 -2.4771 24.5083
530 1 0.45 0.55 0.000102729 -2.4771 24.5082
635 1 0.466667 0.5 0.0651003 -2.83187 0.00500728
662 1 0.5 0.5 0.00010273 -2.4771 24.5082
641 1 0.516667 0.45 0.0651005 -2.83187 0.00500507
660 1 0.516667 0.55 0.0651004 -2.83187 0.00500634
663 1 0.55 0.45 0.000102731 -2.4771 24.5084
664 1 0.55 0.55 0.000102857 -2.4771 24.5081
789 1 0.566667 0.5 0.0651004 -2.83187 0.0050057
790 1 0.6 0.5 0.000102828 -2.4771 24.5082
791 1 0.616667 0.45 0.0651004 -2.83187 0.00500711
792 1 0.616667 0.55 0.0651004 -2.83187 0.00500597
795 1 0.65 0.45 0.000102682 -2.4771 24.5083
810 1 0.65 0.55 0.000102621 -2.4771 24.5084
915 1 0.666667 0.5 0.0651003 -2.83187 0.00500704
921 1 0.716667 0.45 0.0651004 -2.83187 0.00500647
940 1 0.716667 0.55 0.0651004 -2.83187 0.00500692
942 1 0.7 0.5 0.000102681 -2.4771 24.5084
944 1 0.75 0.55 0.000102759 -2.4771 24.5083
943 1 0.75 0.45 0.000102901 -2.4771 24.5082
1069 1 0.766667 0.5 0.0651005 -2.83187 0.0050047
1070 1 0.8 0.5 0.000102666 -2.4771 24.5085
1071 1 0.816667 0.45 0.0651004 -2.83187 0.00500639
1072 1 0.816667 0.55 0.0651005 -2.83187 0.00500535
1075 1 0.85 0.45 0.000102716 -2.4771 24.5084
1090 1 0.85 0.55 0.000102813 -2.4771 24.5082
1195 1 0.866667 0.5 0.0651004 -2.83187 0.00500698
1201 1 0.916666 0.45 0.0651005 -2.83187 0.00500471
1222 1 0.9 0.5 0.000102689 -2.4771 24.5083
12 1 1 0.5 0.000102668 -2.4771 24.5085
1220 1 0.916667 0.55 0.0651004 -2.83187 0.00500604
1223 1 0.95 0.45 0.000102899 -2.4771 24.5079
1224 1 0.95 0.55 0.000102669 -2.4771 24.5084
1338 1 0.966667 0.5 0.0651004 -2.83187 0.00500703
18 1 1.05497e-07 0.7 0.000102732 -2.4771 24.5084
19 1 0.0166668 0.65 0.0651004 -2.83187 0.00500633
21 1 1.68545e-07 0.6 0.00010291 -2.4771 24.508
23 1 0.0499999 0.65 0.00010255 -2.4771 24.5086
95 1 0.0666665 0.7 0.0651004 -2.83187 0.005006
98 1 0.0666665 0.6 0.0651004 -2.83187 0.00500605
99 1 0.1 0.6 0.000102858 -2.4771 24.5083
101 1 0.116667 0.65 0.0651004 -2.83187 0.0050071
114 1 0.0999999 0.7 0.000102876 -2.4771 24.5082
115 1 0.15 0.65 0.000102765 -2.4771 24.5084
245 1 0.166667 0.7 0.0651005 -2.83187 0.00500532
226 1 0.166667 0.6 0.0651004 -2.83187 0.00500676
246 1 0.2 0.7 0.000102864 -2.4771 24.5082
247 1 0.216667 0.65 0.0651004 -2.83187 0.00500759
249 1 0.2 0.6 0.000102735 -2.4771 24.5083
251 1 0.25 0.65 0.000102715 -2.4771 24.5083
375 1 0.266667 0.7 0.0651004 -2.83187 0.00500656
378 1 0.266667 0.6 0.0651005 -2.83187 0.00500507
379 1 0.3 0.6 0.000102764 -2.4771 24.5083
381 1 0.316666 0.65 0.0651004 -2.83187 0.00500593
394 1 0.3 0.7 0.000102761 -2.4771 24.5083
395 1 0.35 0.65 0.000102844 -2.4771 24.5082
506 1 0.366667 0.6 0.0651004 -2.83187 0.00500737
525 1 0.366667 0.7 0.0651002 -2.83187 0.00500845
526 1 0.4 0.7 0.000102613 -2.4771 24.5085
529 1 0.4 0.6 0.000102873 -2.4771 24.5081
527 1 0.416667 0.65 0.0651004 -2.83187 0.00500675
531 1 0.45 0.65 0.000102874 -2.4771 24.5081
655 1 0.466667 0.7 0.0651005 -2.83187 0.00500603
658 1 0.466667 0.6 0.0651004 -2.83187 0.0050066
659 1 0.5 0.6 0.000102667 -2.4771 24.5084
674 1 0.5 0.7 0.000102768 -2.4771 24.5083
661 1 0.516667 0.65 0.0651004 -2.83187 0.00500542
675 1 0.55 0.65 0.00010275 -2.4771 24.5083
786 1 0.566667 0.6 0.0651004 -2.83187 0.0050068
805 1 0.566667 0.7 0.0651003 -2.83187 0.00500762
806 1 0.6 0.7 0.000102774 -2.4771 24.5084
807 1 0.616667 0.65 0.0651004 -2.83187 0.00500631
809 1 0.6 0.6 0.000102721 -2.4771 24.5081
811 1 0.65 0.65 0.000102752 -2.4771 24.5082
938 1 0.666667 0.6 0.0651004 -2.83187 0.0050061
935 1 0.666667 0.7 0.0651005 -2.83187 0.00500619
939 1 0.7 0.6 0.000102725 -2.4771 24.5082
941 1 0.716667 0.65 0.0651004 -2.83187 0.00500578
954 1 0.7 0.7 0.000102778 -2.4771 24.5083
955 1 0.75 0.65 0.00010266 -2.4771 24.5083
1066 1 0.766667 0.6 0.0651004 -2.83187 0.00500554
1085 1 0.766667 0.7 0.0651003 -2.83187 0.00500744
1086 1 0.8 0.7 0.00010271 -2.4771 24.5083
1087 1 0.816667 0.65 0.0651003 -2.83187 0.00500763
1089 1 0.8 0.6 0.000102701 -2.4771 24.5084
1091 1 0.85 0.65 0.000102822 -2.4771 24.5081
1215 1 0.866667 0.7 0.0651004 -2.83187 0.00500689
1218 1 0.866667 0.6 0.0651005 -2.83187 0.00500505
1219 1 0.9 0.6 0.000102925 -2.4771 24.5081
1234 1 0.9 0.7 0.000102719 -2.4771 24.5083
1221 1 0.916667 0.65 0.0651005 -2.83187 0.00500611
1235 1 0.95 0.65 0.000102833 -2.4771 24.5082
1335 1 0.966667 0.6 0.0651005 -2.83187 0.00500605
1348 1 0.966667 0.7 0.0651004 -2.83187 0.00500719
20 1 0.0166667 0.75 0.0651005 -2.83187 0.00500627
25 1 0.0166666 0.85 0.0651005 -2.83187 0.00500629
28 1 0.0499999 0.75 0.000102702 -2.4771 24.5084
29 1 0.0499999 0.85 0.00010283 -2.4771 24.5082
110 1 0.0666666 0.8 0.0651004 -2.83187 0.00500633
111 1 0.0999998 0.8 0.000102834 -2.4771 24.5082
112 1 0.116667 0.75 0.0651004 -2.83187 0.00500669
113 1 0.116667 0.85 0.0651004 -2.83187 0.00500578
116 1 0.15 0.75 0.000102664 -2.4771 24.5084
119 1 0.15 0.85 0.000102682 -2.4771 24.5083
242 1 0.166667 0.8 0.0651004 -2.83187 0.00500684
248 1 0.216666 0.75 0.0651005 -2.83187 0.00500559
255 1 0.216667 0.85 0.0651003 -2.83187 0.00500807
257 1 0.2 0.8 0.000102664 -2.4771 24.5083
259 1 0.25 0.85 0.000102717 -2.4771 24.5083
258 1 0.25 0.75 0.00010283 -2.4771 24.5081
390 1 0.266667 0.8 0.0651005 -2.83187 0.00500607
391 1 0.3 0.8 0.000102821 -2.4771 24.5083
392 1 0.316667 0.75 0.0651004 -2.83187 0.00500647
393 1 0.316667 0.85 0.0651006 -2.83187 0.00500528
396 1 0.35 0.75 0.000102681 -2.4771 24.5084
399 1 0.35 0.85 0.000102814 -2.4771 24.5082
522 1 0.366667 0.8 0.0651003 -2.83187 0.0050083
535 1 0.416667 0.85 0.0651004 -2.83187 0.00500747
537 1 0.4 0.8 0.00010272 -2.4771 24.5083
528 1 0.416667 0.75 0.0651004 -2.83187 0.00500599
538 1 0.45 0.75 0.000102868 -2.4771 24.5082
539 1 0.45 0.85 0.000102812 -2.4771 24.5082
670 1 0.466667 0.8 0.0651006 -2.83187 0.00500435
671 1 0.5 0.8 0.000102774 -2.4771 24.5082
672 1 0.516667 0.75 0.0651005 -2.83187 0.00500575
673 1 0.516667 0.85 0.0651004 -2.83187 0.0050067
676 1 0.55 0.75 0.000102869 -2.4771 24.5082
679 1 0.55 0.85 0.000102652 -2.4771 24.5084
802 1 0.566667 0.8 0.0651005 -2.83187 0.00500641
808 1 0.616666 0.75 0.0651005 -2.83187 0.00500619
815 1 0.616667 0.85 0.0651005 -2.83187 0.00500631
817 1 0.6 0.8 0.000102967 -2.4771 24.5081
818 1 0.65 0.75 0.000102924 -2.4771 24.5082
819 1 0.65 0.85 0.000102946 -2.4771 24.5081
950 1 0.666667 0.8 0.0651005 -2.83187 0.00500558
951 1 0.7 0.8 0.000102802 -2.4771 24.5082
952 1 0.716667 0.75 0.0651005 -2.83187 0.00500514
953 1 0.716666 0.85 0.0651003 -2.83187 0.0050076
956 1 0.75 0.75 0.00010269 -2.4771 24.5084
959 1 0.75 0.85 0.000102822 -2.4771 24.5081
1082 1 0.766667 0.8 0.0651005 -2.83187 0.00500498
1088 1 0.816667 0.75 0.0651004 -2.83187 0.00500696
1095 1 0.816667 0.85 0.0651005 -2.83187 0.00500501
1097 1 0.8 0.8 0.000102728 -2.4771 24.5084
1098 1 0.85 0.75 0.000102762 -2.4771 24.5083
1099 1 0.85 0.85 0.000102911 -2.4771 24.5081
1230 1 0.866667 0.8 0.0651005 -2.83187 0.00500466
1231 1 0.9 0.8 0.000102727 -2.4771 24.5083
1233 1 0.916667 0.85 0.0651003 -2.83187 0.00500795
27 1 1 0.8 0.000102899 -2.4771 24.5081
1232 1 0.916667 0.75 0.0651004 -2.83187 0.00500665
1236 1 0.95 0.75 0.000102787 -2.4771 24.5081
1239 1 0.95 0.85 0.000102883 -2.4771 24.5081
1345 1 0.966667 0.8 0.0651006 -2.83187 0.00500416
24 1 1.49884e-07 0.9 0.000102827 -2.4771 24.5082
26 1 0.0166667 0.95 0.0651005 -2.83187 0.00500536
30 1 0.0500002 0.95 0.000102701 -2.4771 24.5083
107 1 0.0666668 0.9 0.0651004 -2.83187 0.00500665
117 1 0.116667 0.95 0.0651003 -2.83187 0.00500771
118 1 0.0999998 0.9 0.000102805 -2.4771 24.5082
120 1 0.15 0.95 0.000102735 -2.4771 24.5083
253 1 0.166667 0.9 0.0651005 -2.83187 0.00500511
155 1 0.166667 1 0.0651004 -2.83187 0.00500681
254 1 0.2 0.9 0.000102656 -2.4771 24.5083
256 1 0.216667 0.95 0.0651003 -2.83187 0.00500794
260 1 0.25 0.95 0.000102811 -2.4771 24.5081
387 1 0.266667 0.9 0.0651006 -2.83187 0.00500363
397 1 0.316667 0.95 0.0651005 -2.83187 0.00500661
398 1 0.3 0.9 0.000102965 -2.4771 24.5081
435 1 0.366667 1 0.0651004 -2.83187 0.00500746
400 1 0.35 0.95 0.000102853 -2.4771 24.5083
533 1 0.366667 0.9 0.0651006 -2.83187 0.00500491
534 1 0.4 0.9 0.000102819 -2.4771 24.5083
536 1 0.416667 0.95 0.0651005 -2.83187 0.00500453
587 1 0.466667 1 0.0651004 -2.83187 0.00500693
540 1 0.45 0.95 0.000102856 -2.4771 24.5083
667 1 0.466667 0.9 0.0651004 -2.83187 0.00500662
678 1 0.5 0.9 0.000102679 -2.4771 24.5083
677 1 0.516667 0.95 0.0651004 -2.83187 0.00500569
680 1 0.55 0.95 0.000102776 -2.4771 24.5083
813 1 0.566667 0.9 0.0651003 -2.83187 0.00500723
742 1 0.6 1 0.00010286 -2.4771 24.508
814 1 0.6 0.9 0.00010263 -2.4771 24.5084
816 1 0.616667 0.95 0.0651005 -2.83187 0.0050045
820 1 0.65 0.95 0.000102789 -2.4771 24.5082
947 1 0.666667 0.9 0.0651004 -2.83187 0.00500643
868 1 0.7 1 0.000102754 -2.4771 24.5083
957 1 0.716667 0.95 0.0651003 -2.83187 0.00500723
958 1 0.7 0.9 0.000102585 -2.4771 24.5085
960 1 0.75 0.95 0.000102679 -2.4771 24.5084
995 1 0.766667 1 0.0651004 -2.83187 0.00500679
1022 1 0.8 1 0.000102912 -2.4771 24.5082
1093 1 0.766667 0.9 0.0651004 -2.83187 0.00500615
1094 1 0.8 0.9 0.000102907 -2.4771 24.5082
1096 1 0.816667 0.95 0.0651004 -2.83187 0.00500714
1100 1 0.85 0.95 0.000102678 -2.4771 24.5084
1227 1 0.866667 0.9 0.0651005 -2.83187 0.00500526
1238 1 0.9 0.9 0.000102776 -2.4771 24.5083
1237 1 0.916667 0.95 0.0651004 -2.83187 0.00500648
1240 1 0.95 0.95 0.000102708 -2.4771 24.5084
1350 1 0.966667 0.9 0.0651005 -2.83187 0.00500571
36 1 0.0500001 0.0499997 0.19741 -2.85004 3.82358e-08
44 1 0.0333332 0.0999998 0.131243 -2.8512 2.32455e-06
46 1 0.0833335 0.0499999 0.131243 -2.8512 2.32728e-06
150 1 0.1 0.1 0.19741 -2.85004 3.57149e-08
151 1 0.133333 0.1 0.131243 -2.8512 2.374e-06
152 1 0.15 0.0499999 0.19741 -2.85004 3.41221e-08
156 1 0.183333 0.05 0.131243 -2.8512 2.34372e-06
280 1 0.2 0.1 0.19741 -2.85004 3.87639e-08
284 1 0.233333 1.11071e-07 0.131243 -2.8512 2.34913e-06
285 1 0.25 0.0499999 0.19741 -2.85004 3.57608e-08
303 1 0.233333 0.1 0.131243 -2.8512 2.3331e-06
305 1 0.283333 0.0500002 0.131243 -2.8512 2.31109e-06
430 1 0.3 0.1 0.19741 -2.85004 3.79864e-08
431 1 0.333333 0.1 0.131243 -2.8512 2.37205e-06
434 1 0.333333 2.24051e-07 0.131243 -2.8512 2.35319e-06
432 1 0.35 0.0500003 0.19741 -2.85004 3.5438e-08
436 1 0.383333 0.0499999 0.131243 -2.8512 2.33964e-06
560 1 0.4 0.0999997 0.19741 -2.85004 3.65234e-08
563 1 0.4 7.79891e-08 0.19741 -2.85004 3.36391e-08
564 1 0.433333 3.30343e-07 0.131243 -2.8512 2.37938e-06
565 1 0.45 0.0499997 0.19741 -2.85003 3.50974e-08
583 1 0.433333 0.1 0.131243 -2.8512 2.3328e-06
585 1 0.483333 0.05 0.131243 -2.8512 2.38796e-06
710 1 0.5 0.0999998 0.19741 -2.85004 3.77196e-08
711 1 0.533333 0.1 0.131243 -2.8512 2.31027e-06
712 1 0.55 0.0499998 0.19741 -2.85004 3.61719e-08
714 1 0.533333 1.10326e-07 0.131243 -2.8512 2.32416e-06
716 1 0.583333 0.0499998 0.131243 -2.8512 2.35516e-06
840 1 0.6 0.1 0.19741 -2.85004 3.67501e-08
844 1 0.633333 2.24635e-08 0.131243 -2.8512 2.35815e-06
845 1 0.65 0.0499997 0.19741 -2.85004 4.22975e-08
863 1 0.633333 0.1 0.131243 -2.8512 2.33584e-06
865 1 0.683333 0.0500003 0.131243 -2.8512 2.37565e-06
975 1 0.7 1.52396e-07 0.19741 -2.85004 3.61976e-08
990 1 0.7 0.0999998 0.19741 -2.85003 3.46471e-08
991 1 0.733333 0.1 0.131243 -2.8512 2.34197e-06
992 1 0.75 0.0499997 0.19741 -2.85004 3.97257e-08
994 1 0.733333 7.73562e-08 0.131243 -2.8512 2.3494e-06
996 1 0.783333 0.0499999 0.131243 -2.8512 2.35948e-06
1120 1 0.8 0.1 0.19741 -2.85004 3.50713e-08
1123 1 0.8 3.23937e-07 0.19741 -2.85004 3.93127e-08
1143 1 0.833333 0.1 0.131243 -2.8512 2.32102e-06
1125 1 0.85 0.05 0.19741 -2.85004 3.55609e-08
1145 1 0.883333 0.0500002 0.131243 -2.8512 2.3612e-06
1255 1 0.9 1.558e-07 0.19741 -2.85004 3.18637e-08
1270 1 0.9 0.1 0.19741 -2.85004 4.10929e-08
31 1 1 0.1 0.19741 -2.85004 3.43609e-08
1271 1 0.933333 0.0999997 0.131243 -2.8512 2.3459e-06
1272 1 0.95 0.0500003 0.19741 -2.85003 4.01029e-08
1274 1 0.933333 1.27782e-07 0.131243 -2.8512 2.35832e-06
1276 1 0.983333 0.0500001 0.131243 -2.8512 2.33158e-06
40 1 1.2092e-07 0.2 0.19741 -2.85004 3.51421e-08
41 1 0.0333335 0.2 0.131243 -2.8512 2.32149e-06
42 1 0.0500001 0.15 0.19741 -2.85004 3.89189e-08
43 1 0.05 0.25 0.19741 -2.85004 3.69257e-08
47 1 0.0833333 0.15 0.131243 -2.8512 2.34915e-06
60 1 0.0833333 0.25 0.131243 -2.8512 2.34143e-06
147 1 0.0999999 0.2 0.19741 -2.85004 3.8419e-08
153 1 0.15 0.15 0.19741 -2.85003 3.24268e-08
172 1 0.15 0.25 0.19741 -2.85004 3.33183e-08
174 1 0.133333 0.2 0.131243 -2.8512 2.36936e-06
176 1 0.183333 0.15 0.131243 -2.8512 2.32735e-06
177 1 0.183333 0.25 0.131243 -2.8512 2.35994e-06
299 1 0.2 0.2 0.19741 -2.85004 3.79356e-08
300 1 0.233333 0.2 0.131243 -2.8512 2.34328e-06
301 1 0.25 0.15 0.19741 -2.85004 3.82687e-08
302 1 0.25 0.25 0.19741 -2.85004 4.0195e-08
306 1 0.283333 0.15 0.131243 -2.8512 2.34751e-06
329 1 0.283333 0.25 0.131243 -2.8512 2.35023e-06
427 1 0.3 0.2 0.19741 -2.85004 3.55252e-08
454 1 0.333333 0.2 0.131243 -2.8512 2.38381e-06
433 1 0.35 0.15 0.19741 -2.85004 3.85654e-08
452 1 0.35 0.25 0.19741 -2.85003 3.75699e-08
456 1 0.383333 0.15 0.131243 -2.8512 2.32628e-06
457 1 0.383333 0.25 0.131243 -2.8512 2.34286e-06
579 1 0.4 0.2 0.19741 -2.85004 3.3242e-08
580 1 0.433333 0.2 0.131243 -2.8512 2.34653e-06
581 1 0.45 0.15 0.19741 -2.85004 3.98029e-08
582 1 0.45 0.25 0.19741 -2.85004 4.20623e-08
586 1 0.483333 0.15 0.131243 -2.8512 2.33159e-06
609 1 0.483333 0.25 0.131243 -2.8512 2.35086e-06
707 1 0.5 0.2 0.19741 -2.85004 3.66936e-08
713 1 0.55 0.15 0.19741 -2.85004 4.1591e-08
732 1 0.55 0.25 0.19741 -2.85004 3.87826e-08
734 1 0.533333 0.2 0.131243 -2.8512 2.33108e-06
737 1 0.583333 0.25 0.131243 -2.8512 2.34519e-06
736 1 0.583333 0.15 0.131243 -2.8512 2.36222e-06
859 1 0.6 0.2 0.19741 -2.85004 3.47711e-08
860 1 0.633333 0.2 0.131243 -2.8512 2.32442e-06
861 1 0.65 0.15 0.19741 -2.85004 3.2993e-08
862 1 0.65 0.25 0.19741 -2.85004 3.99754e-08
866 1 0.683333 0.15 0.131243 -2.8512 2.3468e-06
889 1 0.683333 0.25 0.131243 -2.8512 2.36559e-06
987 1 0.7 0.2 0.19741 -2.85004 3.73672e-08
993 1 0.75 0.15 0.19741 -2.85004 4.44298e-08
1012 1 0.75 0.25 0.19741 -2.85004 3.98656e-08
1014 1 0.733333 0.2 0.131243 -2.8512 2.37611e-06
1016 1 0.783333 0.15 0.131243 -2.8512 2.35245e-06
1017 1 0.783333 0.25 0.131243 -2.8512 2.31666e-06
1139 1 0.8 0.2 0.19741 -2.85004 3.15027e-08
1140 1 0.833333 0.2 0.131243 -2.8512 2.35484e-06
1141 1 0.85 0.15 0.19741 -2.85004 3.90488e-08
1142 1 0.85 0.25 0.19741 -2.85004 3.889e-08
1146 1 0.883333 0.15 0.131243 -2.8512 2.32428e-06
1169 1 0.883333 0.25 0.131243 -2.8512 2.33565e-06
1267 1 0.9 0.2 0.19741 -2.85004 3.32963e-08
1273 1 0.95 0.15 0.19741 -2.85004 3.85307e-08
1292 1 0.95 0.25 0.19741 -2.85004 3.55142e-08
1294 1 0.933333 0.2 0.131243 -2.8512 2.35308e-06
1296 1 0.983333 0.15 0.131243 -2.8512 2.3531e-06
1297 1 0.983333 0.25 0.131243 -2.8512 2.36529e-06
54 1 1.27527e-07 0.4 0.19741 -2.85004 3.63075e-08
55 1 0.0333334 0.4 0.131243 -2.8512 2.34233e-06
56 1 0.0500002 0.35 0.19741 -2.85004 3.81087e-08
58 1 0.0333334 0.3 0.131243 -2.8512 2.38063e-06
61 1 0.0833334 0.35 0.131243 -2.8512 2.34249e-06
167 1 0.0999999 0.4 0.19741 -2.85004 4.11594e-08
170 1 0.1 0.3 0.19741 -2.85004 3.98429e-08
171 1 0.133333 0.3 0.131243 -2.8512 2.34088e-06
173 1 0.15 0.35 0.19741 -2.85004 3.9362e-08
201 1 0.133333 0.4 0.131243 -2.8512 2.36305e-06
203 1 0.183333 0.35 0.131243 -2.8512 2.36317e-06
296 1 0.2 0.3 0.19741 -2.85004 3.1537e-08
323 1 0.2 0.4 0.19741 -2.85004 3.98568e-08
324 1 0.233333 0.4 0.131243 -2.8512 2.34813e-06
325 1 0.25 0.35 0.19741 -2.85004 3.78329e-08
327 1 0.233333 0.3 0.131243 -2.8512 2.33333e-06
330 1 0.283333 0.35 0.131243 -2.8512 2.36279e-06
447 1 0.3 0.4 0.19741 -2.85004 3.77009e-08
450 1 0.3 0.3 0.19741 -2.85004 3.75658e-08
451 1 0.333333 0.3 0.131243 -2.8512 2.37299e-06
481 1 0.333333 0.4 0.131243 -2.8512 2.34359e-06
453 1 0.35 0.35 0.19741 -2.85004 3.53707e-08
483 1 0.383333 0.35 0.131243 -2.8512 2.35975e-06
576 1 0.4 0.3 0.19741 -2.85004 3.52679e-08
603 1 0.4 0.4 0.19741 -2.85004 3.26314e-08
604 1 0.433333 0.4 0.131243 -2.8512 2.33747e-06
605 1 0.45 0.35 0.19741 -2.85004 3.83361e-08
607 1 0.433334 0.3 0.131243 -2.8512 2.31754e-06
610 1 0.483333 0.35 0.131243 -2.8512 2.37371e-06
727 1 0.5 0.4 0.19741 -2.85004 3.17574e-08
730 1 0.5 0.3 0.19741 -2.85004 3.91256e-08
731 1 0.533333 0.3 0.131243 -2.8512 2.37089e-06
733 1 0.55 0.35 0.19741 -2.85003 3.56368e-08
761 1 0.533333 0.4 0.131243 -2.8512 2.3556e-06
763 1 0.583333 0.35 0.131243 -2.8512 2.33968e-06
856 1 0.6 0.3 0.19741 -2.85004 3.69509e-08
883 1 0.6 0.4 0.19741 -2.85004 4.31129e-08
884 1 0.633333 0.4 0.131243 -2.8512 2.3335e-06
885 1 0.65 0.35 0.19741 -2.85003 3.46246e-08
887 1 0.633333 0.3 0.131243 -2.8512 2.3941e-06
890 1 0.683333 0.35 0.131243 -2.8512 2.31645e-06
1007 1 0.7 0.4 0.19741 -2.85004 3.81718e-08
1010 1 0.7 0.3 0.19741 -2.85004 3.22123e-08
1011 1 0.733333 0.3 0.131243 -2.8512 2.33665e-06
1041 1 0.733333 0.4 0.131243 -2.8512 2.35216e-06
1013 1 0.75 0.35 0.19741 -2.85004 3.32394e-08
1043 1 0.783333 0.35 0.131243 -2.8512 2.38117e-06
1136 1 0.8 0.3 0.19741 -2.85004 4.0746e-08
1163 1 0.8 0.4 0.19741 -2.85004 3.57607e-08
1167 1 0.833333 0.3 0.131243 -2.8512 2.37809e-06
1164 1 0.833333 0.4 0.131243 -2.8512 2.34265e-06
1165 1 0.85 0.35 0.19741 -2.85004 3.98246e-08
1170 1 0.883333 0.35 0.131243 -2.8512 2.38014e-06
1287 1 0.9 0.4 0.19741 -2.85004 3.81769e-08
1290 1 0.9 0.3 0.19741 -2.85004 3.39189e-08
37 1 1 0.3 0.19741 -2.85004 3.41052e-08
1291 1 0.933333 0.3 0.131243 -2.8512 2.30247e-06
1293 1 0.95 0.35 0.19741 -2.85004 4.12356e-08
1316 1 0.933333 0.4 0.131243 -2.8512 2.36243e-06
1318 1 0.983333 0.35 0.131243 -2.8512 2.31829e-06
51 1 6.51706e-08 0.5 0.19741 -2.85004 3.60519e-08
57 1 0.0500001 0.45 0.19741 -2.85003 3.61694e-08
74 1 0.0499999 0.55 0.19741 -2.85004 3.37301e-08
76 1 0.0333333 0.5 0.131243 -2.8512 2.36014e-06
78 1 0.0833333 0.45 0.131243 -2.8512 2.3523e-06
79 1 0.0833332 0.55 0.131243 -2.8512 2.34606e-06
197 1 0.1 0.5 0.19741 -2.85004 3.65818e-08
198 1 0.133333 0.5 0.131243 -2.8512 2.34317e-06
199 1 0.15 0.45 0.19741 -2.85004 3.65071e-08
200 1 0.15 0.55 0.19741 -2.85004 3.92435e-08
204 1 0.183333 0.45 0.131243 -2.8512 2.34783e-06
227 1 0.183333 0.55 0.131243 -2.8512 2.38254e-06
320 1 0.2 0.5 0.19741 -2.85003 3.35513e-08
326 1 0.25 0.45 0.19741 -2.85004 3.5156e-08
352 1 0.25 0.55 0.19741 -2.85004 4.03376e-08
354 1 0.233333 0.5 0.131243 -2.8512 2.34718e-06
356 1 0.283333 0.45 0.131243 -2.8512 2.309e-06
357 1 0.283333 0.55 0.131243 -2.8512 2.3316e-06
477 1 0.3 0.5 0.19741 -2.85004 3.40042e-08
478 1 0.333333 0.5 0.131243 -2.8512 2.39336e-06
479 1 0.35 0.45 0.19741 -2.85004 3.21969e-08
480 1 0.35 0.55 0.19741 -2.85004 4.14949e-08
484 1 0.383333 0.45 0.131243 -2.8512 2.32669e-06
507 1 0.383333 0.55 0.131243 -2.8512 2.33518e-06
600 1 0.4 0.5 0.19741 -2.85004 3.67451e-08
606 1 0.45 0.45 0.19741 -2.85004 4.05638e-08
632 1 0.45 0.55 0.19741 -2.85004 3.44887e-08
634 1 0.433333 0.5 0.131243 -2.8512 2.35235e-06
636 1 0.483333 0.45 0.131243 -2.8512 2.32193e-06
637 1 0.483333 0.55 0.131243 -2.8512 2.36183e-06
757 1 0.5 0.5 0.19741 -2.85004 3.88574e-08
758 1 0.533333 0.5 0.131243 -2.8512 2.32234e-06
759 1 0.55 0.45 0.19741 -2.85004 3.7424e-08
760 1 0.55 0.55 0.19741 -2.85003 4.13859e-08
764 1 0.583333 0.45 0.131242 -2.8512 2.41164e-06
787 1 0.583333 0.55 0.131243 -2.8512 2.3702e-06
880 1 0.6 0.5 0.197409 -2.85004 3.3042e-08
886 1 0.65 0.45 0.19741 -2.85004 4.3828e-08
912 1 0.65 0.55 0.19741 -2.85004 3.94413e-08
914 1 0.633333 0.5 0.131243 -2.8512 2.29396e-06
916 1 0.683333 0.45 0.131243 -2.8512 2.35149e-06
917 1 0.683333 0.55 0.131243 -2.8512 2.35473e-06
1037 1 0.7 0.5 0.19741 -2.85004 3.58728e-08
1038 1 0.733333 0.5 0.131243 -2.8512 2.35247e-06
1039 1 0.75 0.45 0.19741 -2.85004 3.18815e-08
1040 1 0.75 0.55 0.19741 -2.85004 3.53116e-08
1044 1 0.783333 0.45 0.131243 -2.8512 2.32408e-06
1067 1 0.783333 0.55 0.131243 -2.8512 2.35728e-06
1160 1 0.8 0.5 0.19741 -2.85004 3.71349e-08
1194 1 0.833333 0.5 0.131243 -2.8512 2.34588e-06
1166 1 0.85 0.45 0.19741 -2.85004 3.80338e-08
1192 1 0.85 0.55 0.19741 -2.85004 3.46608e-08
1196 1 0.883333 0.45 0.131243 -2.8512 2.31399e-06
1197 1 0.883333 0.55 0.131243 -2.8512 2.35691e-06
1312 1 0.9 0.5 0.19741 -2.85004 3.35196e-08
1313 1 0.933333 0.5 0.131243 -2.8512 2.32044e-06
1314 1 0.95 0.45 0.19741 -2.85004 3.39069e-08
1315 1 0.95 0.55 0.19741 -2.85004 3.75264e-08