ITEM: TIMESTEP
39
ITEM: NUMBER OF ATOMS
3200
ITEM: BOX BOUNDS pp pp ss
0.0000000000000000e+00 5.0092067021360698e+01
0.0000000000000000e+00 2.8920668379047399e+01
3.8451742731260487e-02 3.5381988531723906e+01
ITEM: ATOMS id type xs ys zs c_peratom c_csym
1 1 0 0.1 -0.00168979 -2.47863 24.2894
2 1 0.0166667 0.05 0.0634991 -2.83005 0.00711982
4 1 0 0 -0.00168979 -2.47863 24.2894
5 1 0.05 0.05 -0.00168979 -2.47863 24.2894
45 1 0.0666667 0.1 0.0634991 -2.83005 0.00711982
48 1 0.0666667 0 0.0634991 -2.83005 0.00711982
49 1 0.1 0 -0.00168979 -2.47863 24.2894
50 1 0.116667 0.05 0.0634991 -2.83005 0.00711982
66 1 0.1 0.1 -0.00168979 -2.47863 24.2894
67 1 0.15 0.05 -0.00168979 -2.47863 24.2894
155 1 0.166667 0 0.0634991 -2.83005 0.00711982
178 1 0.166667 0.1 0.0634991 -2.83005 0.00711982
179 1 0.2 0.1 -0.00168979 -2.47863 24.2894
180 1 0.216667 0.05 0.0634991 -2.83005 0.00711982
182 1 0.2 0 -0.00168979 -2.47863 24.2894
183 1 0.25 0.05 -0.00168979 -2.47863 24.2894
304 1 0.266667 0.1 0.0634991 -2.83005 0.00711982
307 1 0.266667 0 0.0634991 -2.83005 0.00711982
308 1 0.3 0 -0.00168979 -2.47863 24.2894
309 1 0.316667 0.05 0.0634991 -2.83005 0.00711982
335 1 0.3 0.1 -0.00168979 -2.47863 24.2894
336 1 0.35 0.05 -0.00168979 -2.47863 24.2894
435 1 0.366667 0 0.0634991 -2.83005 0.00711982
458 1 0.366667 0.1 0.0634991 -2.83005 0.00711982
459 1 0.4 0.1 -0.00168979 -2.47863 24.2894
460 1 0.416667 0.05 0.0634991 -2.83005 0.00711982
462 1 0.4 0 -0.00168979 -2.47863 24.2894
463 1 0.45 0.05 -0.00168979 -2.47863 24.2894
584 1 0.466667 0.1 0.0634991 -2.83005 0.00711982
587 1 0.466667 0 0.0634991 -2.83005 0.00711982
588 1 0.5 0 -0.00168979 -2.47863 24.2894
615 1 0.5 0.1 -0.00168979 -2.47863 24.2894
589 1 0.516667 0.05 0.0634991 -2.83005 0.00711982
616 1 0.55 0.05 -0.00168979 -2.47863 24.2894
715 1 0.566667 0 0.0634991 -2.83005 0.00711982
738 1 0.566667 0.1 0.0634991 -2.83005 0.00711982
739 1 0.6 0.1 -0.00168979 -2.47863 24.2894
740 1 0.616667 0.05 0.0634991 -2.83005 0.00711982
742 1 0.6 0 -0.00168979 -2.47863 24.2894
743 1 0.65 0.05 -0.00168979 -2.47863 24.2894
864 1 0.666667 0.1 0.0634991 -2.83005 0.00711982
867 1 0.666667 0 0.0634991 -2.83005 0.00711982
868 1 0.7 0 -0.00168979 -2.47863 24.2894
869 1 0.716667 0.05 0.0634991 -2.83005 0.00711982
895 1 0.7 0.1 -0.00168979 -2.47863 24.2894
896 1 0.75 0.05 -0.00168979 -2.47863 24.2894
995 1 0.766667 0 0.0634991 -2.83005 0.00711982
1018 1 0.766667 0.1 0.0634991 -2.83005 0.00711982
1019 1 0.8 0.1 -0.00168979 -2.47863 24.2894
1020 1 0.816667 0.05 0.0634991 -2.83005 0.00711982
1022 1 0.8 0 -0.00168979 -2.47863 24.2894
1023 1 0.85 0.05 -0.00168979 -2.47863 24.2894
1144 1 0.866667 0.1 0.0634991 -2.83005 0.00711982
1147 1 0.866667 0 0.0634991 -2.83005 0.00711982
1148 1 0.9 0 -0.00168979 -2.47863 24.2894
1149 1 0.916667 0.05 0.0634991 -2.83005 0.00711982
1175 1 0.9 0.1 -0.00168979 -2.47863 24.2894
1176 1 0.95 0.05 -0.00168979 -2.47863 24.2894
1275 1 0.966667 0 0.0634991 -2.83005 0.00711982
1298 1 0.966667 0.1 0.0634991 -2.83005 0.00711982
3 1 0.0166667 0.15 0.0634991 -2.83005 0.00711982
7 1 0.0166667 0.25 0.0634991 -2.83005 0.00711982
9 1 0 0.2 -0.00168979 -2.47863 24.2894
10 1 0.05 0.15 -0.00168979 -2.47863 24.2894
11 1 0.05 0.25 -0.00168979 -2.47863 24.2894
62 1 0.0666667 0.2 0.0634991 -2.83005 0.00711982
63 1 0.1 0.2 -0.00168979 -2.47863 24.2894
64 1 0.116667 0.15 0.0634991 -2.83005 0.00711982
65 1 0.116667 0.25 0.0634991 -2.83005 0.00711982
68 1 0.15 0.15 -0.00168979 -2.47863 24.2894
85 1 0.15 0.25 -0.00168979 -2.47863 24.2894
175 1 0.166667 0.2 0.0634991 -2.83005 0.00711982
181 1 0.216667 0.15 0.0634991 -2.83005 0.00711982
207 1 0.216667 0.25 0.0634991 -2.83005 0.00711982
209 1 0.2 0.2 -0.00168979 -2.47863 24.2894
210 1 0.25 0.15 -0.00168979 -2.47863 24.2894
211 1 0.25 0.25 -0.00168979 -2.47863 24.2894
331 1 0.266667 0.2 0.0634991 -2.83005 0.00711982
332 1 0.3 0.2 -0.00168979 -2.47863 24.2894
333 1 0.316667 0.15 0.0634991 -2.83005 0.00711982
334 1 0.316667 0.25 0.0634991 -2.83005 0.00711982
337 1 0.35 0.15 -0.00168979 -2.47863 24.2894
363 1 0.35 0.25 -0.00168979 -2.47863 24.2894
455 1 0.366667 0.2 0.0634991 -2.83005 0.00711982
461 1 0.416667 0.15 0.0634991 -2.83005 0.00711982
487 1 0.416667 0.25 0.0634991 -2.83005 0.00711982
489 1 0.4 0.2 -0.00168979 -2.47863 24.2894
490 1 0.45 0.15 -0.00168979 -2.47863 24.2894
491 1 0.45 0.25 -0.00168979 -2.47863 24.2894
611 1 0.466667 0.2 0.0634991 -2.83005 0.00711982
612 1 0.5 0.2 -0.00168979 -2.47863 24.2894
613 1 0.516667 0.15 0.0634991 -2.83005 0.00711982
614 1 0.516667 0.25 0.0634991 -2.83005 0.00711982
617 1 0.55 0.15 -0.00168979 -2.47863 24.2894
643 1 0.55 0.25 -0.00168979 -2.47863 24.2894
735 1 0.566667 0.2 0.0634991 -2.83005 0.00711982
741 1 0.616667 0.15 0.0634991 -2.83005 0.00711982
767 1 0.616667 0.25 0.0634991 -2.83005 0.00711982
769 1 0.6 0.2 -0.00168979 -2.47863 24.2894
770 1 0.65 0.15 -0.00168979 -2.47863 24.2894
771 1 0.65 0.25 -0.00168979 -2.47863 24.2894
891 1 0.666667 0.2 0.0634991 -2.83005 0.00711982
892 1 0.7 0.2 -0.00168979 -2.47863 24.2894
893 1 0.716667 0.15 0.0634991 -2.83005 0.00711982
894 1 0.716667 0.25 0.0634991 -2.83005 0.00711982
897 1 0.75 0.15 -0.00168979 -2.47863 24.2894
923 1 0.75 0.25 -0.00168979 -2.47863 24.2894
1015 1 0.766667 0.2 0.0634991 -2.83005 0.00711982
1021 1 0.816667 0.15 0.0634991 -2.83005 0.00711982
1047 1 0.816667 0.25 0.0634991 -2.83005 0.00711982
1049 1 0.8 0.2 -0.00168979 -2.47863 24.2894
1050 1 0.85 0.15 -0.00168979 -2.47863 24.2894
1051 1 0.85 0.25 -0.00168979 -2.47863 24.2894
1171 1 0.866667 0.2 0.0634991 -2.83005 0.00711982
1172 1 0.9 0.2 -0.00168979 -2.47863 24.2894
1173 1 0.916667 0.15 0.0634991 -2.83005 0.00711982
1174 1 0.916667 0.25 0.0634991 -2.83005 0.00711982
1177 1 0.95 0.15 -0.00168979 -2.47863 24.2894
1203 1 0.95 0.25 -0.00168979 -2.47863 24.2894
1295 1 0.966667 0.2 0.0634991 -2.83005 0.00711982
6 1 0 0.3 -0.00168979 -2.47863 24.2894
8 1 0.0166667 0.35 0.0634991 -2.83005 0.00711982
15 1 0 0.4 -0.00168979 -2.47863 24.2894
16 1 0.05 0.35 -0.00168979 -2.47863 24.2894
59 1 0.0666667 0.3 0.0634991 -2.83005 0.00711982
80 1 0.0666667 0.4 0.0634991 -2.83005 0.00711982
81 1 0.1 0.4 -0.00168979 -2.47863 24.2894
82 1 0.116667 0.35 0.0634991 -2.83005 0.00711982
84 1 0.1 0.3 -0.00168979 -2.47863 24.2894
86 1 0.15 0.35 -0.00168979 -2.47863 24.2894
202 1 0.166667 0.4 0.0634991 -2.83005 0.00711982
205 1 0.166667 0.3 0.0634991 -2.83005 0.00711982
206 1 0.2 0.3 -0.00168979 -2.47863 24.2894
208 1 0.216667 0.35 0.0634991 -2.83005 0.00711982
233 1 0.2 0.4 -0.00168979 -2.47863 24.2894
234 1 0.25 0.35 -0.00168979 -2.47863 24.2894
328 1 0.266667 0.3 0.0634991 -2.83005 0.00711982
358 1 0.266667 0.4 0.0634991 -2.83005 0.00711982
359 1 0.3 0.4 -0.00168979 -2.47863 24.2894
360 1 0.316667 0.35 0.0634991 -2.83005 0.00711982
362 1 0.3 0.3 -0.00168979 -2.47863 24.2894
364 1 0.35 0.35 -0.00168979 -2.47863 24.2894
482 1 0.366667 0.4 0.0634991 -2.83005 0.00711982
485 1 0.366667 0.3 0.0634991 -2.83005 0.00711982
486 1 0.4 0.3 -0.00168979 -2.47863 24.2894
488 1 0.416667 0.35 0.0634991 -2.83005 0.00711982
513 1 0.4 0.4 -0.00168979 -2.47863 24.2894
514 1 0.45 0.35 -0.00168979 -2.47863 24.2894
608 1 0.466667 0.3 0.0634991 -2.83005 0.00711982
638 1 0.466667 0.4 0.0634991 -2.83005 0.00711982
639 1 0.5 0.4 -0.00168979 -2.47863 24.2894
642 1 0.5 0.3 -0.00168979 -2.47863 24.2894
640 1 0.516667 0.35 0.0634991 -2.83005 0.00711982
644 1 0.55 0.35 -0.00168979 -2.47863 24.2894
762 1 0.566667 0.4 0.0634991 -2.83005 0.00711982
765 1 0.566667 0.3 0.0634991 -2.83005 0.00711982
766 1 0.6 0.3 -0.00168979 -2.47863 24.2894
768 1 0.616667 0.35 0.0634991 -2.83005 0.00711982
793 1 0.6 0.4 -0.00168979 -2.47863 24.2894
794 1 0.65 0.35 -0.00168979 -2.47863 24.2894
888 1 0.666667 0.3 0.0634991 -2.83005 0.00711982
918 1 0.666667 0.4 0.0634991 -2.83005 0.00711982
919 1 0.7 0.4 -0.00168979 -2.47863 24.2894
920 1 0.716667 0.35 0.0634991 -2.83005 0.00711982
922 1 0.7 0.3 -0.00168979 -2.47863 24.2894
924 1 0.75 0.35 -0.00168979 -2.47863 24.2894
1042 1 0.766667 0.4 0.0634991 -2.83005 0.00711982
1045 1 0.766667 0.3 0.0634991 -2.83005 0.00711982
1046 1 0.8 0.3 -0.00168979 -2.47863 24.2894
1048 1 0.816667 0.35 0.0634991 -2.83005 0.00711982
1073 1 0.8 0.4 -0.00168979 -2.47863 24.2894
1074 1 0.85 0.35 -0.00168979 -2.47863 24.2894
1168 1 0.866667 0.3 0.0634991 -2.83005 0.00711982
1198 1 0.866667 0.4 0.0634991 -2.83005 0.00711982
1199 1 0.9 0.4 -0.00168979 -2.47863 24.2894
1200 1 0.916667 0.35 0.0634991 -2.83005 0.00711982
1202 1 0.9 0.3 -0.00168979 -2.47863 24.2894
1204 1 0.95 0.35 -0.00168979 -2.47863 24.2894
1317 1 0.966667 0.4 0.0634991 -2.83005 0.00711982
1320 1 0.966667 0.3 0.0634991 -2.83005 0.00711982
12 1 0 0.5 -0.00168979 -2.47863 24.2894
13 1 0.0166667 0.45 0.0634991 -2.83005 0.00711982
14 1 0.0166667 0.55 0.0634991 -2.83005 0.00711982
17 1 0.05 0.45 -0.00168979 -2.47863 24.2894
22 1 0.05 0.55 -0.00168979 -2.47863 24.2894
77 1 0.0666667 0.5 0.0634991 -2.83005 0.00711982
83 1 0.116667 0.45 0.0634991 -2.83005 0.00711982
100 1 0.116667 0.55 0.0634991 -2.83005 0.00711982
102 1 0.1 0.5 -0.00168979 -2.47863 24.2894
103 1 0.15 0.45 -0.00168979 -2.47863 24.2894
104 1 0.15 0.55 -0.00168979 -2.47863 24.2894
229 1 0.166667 0.5 0.0634991 -2.83005 0.00711982
230 1 0.2 0.5 -0.00168979 -2.47863 24.2894
231 1 0.216667 0.45 0.0634991 -2.83005 0.00711982
232 1 0.216667 0.55 0.0634991 -2.83005 0.00711982
235 1 0.25 0.45 -0.00168979 -2.47863 24.2894
250 1 0.25 0.55 -0.00168979 -2.47863 24.2894
355 1 0.266667 0.5 0.0634991 -2.83005 0.00711982
361 1 0.316667 0.45 0.0634991 -2.83005 0.00711982
380 1 0.316667 0.55 0.0634991 -2.83005 0.00711982
382 1 0.3 0.5 -0.00168979 -2.47863 24.2894
383 1 0.35 0.45 -0.00168979 -2.47863 24.2894
384 1 0.35 0.55 -0.00168979 -2.47863 24.2894
509 1 0.366667 0.5 0.0634991 -2.83005 0.00711982
510 1 0.4 0.5 -0.00168979 -2.47863 24.2894
511 1 0.416667 0.45 0.0634991 -2.83005 0.00711982
512 1 0.416667 0.55 0.0634991 -2.83005 0.00711982
515 1 0.45 0.45 -0.00168979 -2.47863 24.2894
530 1 0.45 0.55 -0.00168979 -2.47863 24.2894
635 1 0.466667 0.5 0.0634991 -2.83005 0.00711982
662 1 0.5 0.5 -0.00168979 -2.47863 24.2894
641 1 0.516667 0.45 0.0634991 -2.83005 0.00711982
660 1 0.516667 0.55 0.0634991 -2.83005 0.00711982
663 1 0.55 0.45 -0.00168979 -2.47863 24.2894
664 1 0.55 0.55 -0.00168979 -2.47863 24.2894
789 1 0.566667 0.5 0.0634991 -2.83005 0.00711982
790 1 0.6 0.5 -0.00168979 -2.47863 24.2894
791 1 0.616667 0.45 0.0634991 -2.83005 0.00711982
792 1 0.616667 0.55 0.0634991 -2.83005 0.00711982
795 1 0.65 0.45 -0.00168979 -2.47863 24.2894
810 1 0.65 0.55 -0.00168979 -2.47863 24.2894
915 1 0.666667 0.5 0.0634991 -2.83005 0.00711982
921 1 0.716667 0.45 0.0634991 -2.83005 0.00711982
940 1 0.716667 0.55 0.0634991 -2.83005 0.00711982
942 1 0.7 0.5 -0.00168979 -2.47863 24.2894
943 1 0.75 0.45 -0.00168979 -2.47863 24.2894
944 1 0.75 0.55 -0.00168979 -2.47863 24.2894
1069 1 0.766667 0.5 0.0634991 -2.83005 0.00711982
1070 1 0.8 0.5 -0.00168979 -2.47863 24.2894
1071 1 0.816667 0.45 0.0634991 -2.83005 0.00711982
1072 1 0.816667 0.55 0.0634991 -2.83005 0.00711982
1075 1 0.85 0.45 -0.00168979 -2.47863 24.2894
1090 1 0.85 0.55 -0.00168979 -2.47863 24.2894
1195 1 0.866667 0.5 0.0634991 -2.83005 0.00711982
1201 1 0.916667 0.45 0.0634991 -2.83005 0.00711982
1220 1 0.916667 0.55 0.0634991 -2.83005 0.00711982
1222 1 0.9 0.5 -0.00168979 -2.47863 24.2894
1223 1 0.95 0.45 -0.00168979 -2.47863 24.2894
1224 1 0.95 0.55 -0.00168979 -2.47863 24.2894
1338 1 0.966667 0.5 0.0634991 -2.83005 0.00711982
18 1 0 0.7 -0.00168979 -2.47863 24.2894
19 1 0.0166667 0.65 0.0634991 -2.83005 0.00711982
21 1 0 0.6 -0.00168979 -2.47863 24.2894
23 1 0.05 0.65 -0.00168979 -2.47863 24.2894
95 1 0.0666667 0.7 0.0634991 -2.83005 0.00711982
98 1 0.0666667 0.6 0.0634991 -2.83005 0.00711982
99 1 0.1 0.6 -0.00168979 -2.47863 24.2894
101 1 0.116667 0.65 0.0634991 -2.83005 0.00711982
114 1 0.1 0.7 -0.00168979 -2.47863 24.2894
115 1 0.15 0.65 -0.00168979 -2.47863 24.2894
226 1 0.166667 0.6 0.0634991 -2.83005 0.00711982
245 1 0.166667 0.7 0.0634991 -2.83005 0.00711982
246 1 0.2 0.7 -0.00168979 -2.47863 24.2894
247 1 0.216667 0.65 0.0634991 -2.83005 0.00711982
249 1 0.2 0.6 -0.00168979 -2.47863 24.2894
251 1 0.25 0.65 -0.00168979 -2.47863 24.2894
375 1 0.266667 0.7 0.0634991 -2.83005 0.00711982
378 1 0.266667 0.6 0.0634991 -2.83005 0.00711982
379 1 0.3 0.6 -0.00168979 -2.47863 24.2894
381 1 0.316667 0.65 0.0634991 -2.83005 0.00711982
394 1 0.3 0.7 -0.00168979 -2.47863 24.2894
395 1 0.35 0.65 -0.00168979 -2.47863 24.2894
506 1 0.366667 0.6 0.0634991 -2.83005 0.00711982
525 1 0.366667 0.7 0.0634991 -2.83005 0.00711982
526 1 0.4 0.7 -0.00168979 -2.47863 24.2894
527 1 0.416667 0.65 0.0634991 -2.83005 0.00711982
529 1 0.4 0.6 -0.00168979 -2.47863 24.2894
531 1 0.45 0.65 -0.00168979 -2.47863 24.2894
655 1 0.466667 0.7 0.0634991 -2.83005 0.00711982
658 1 0.466667 0.6 0.0634991 -2.83005 0.00711982
659 1 0.5 0.6 -0.00168979 -2.47863 24.2894
674 1 0.5 0.7 -0.00168979 -2.47863 24.2894
661 1 0.516667 0.65 0.0634991 -2.83005 0.00711982
675 1 0.55 0.65 -0.00168979 -2.47863 24.2894
786 1 0.566667 0.6 0.0634991 -2.83005 0.00711982
805 1 0.566667 0.7 0.0634991 -2.83005 0.00711982
806 1 0.6 0.7 -0.00168979 -2.47863 24.2894
807 1 0.616667 0.65 0.0634991 -2.83005 0.00711982
809 1 0.6 0.6 -0.00168979 -2.47863 24.2894
811 1 0.65 0.65 -0.00168979 -2.47863 24.2894
935 1 0.666667 0.7 0.0634991 -2.83005 0.00711982
938 1 0.666667 0.6 0.0634991 -2.83005 0.00711982
939 1 0.7 0.6 -0.00168979 -2.47863 24.2894
941 1 0.716667 0.65 0.0634991 -2.83005 0.00711982
954 1 0.7 0.7 -0.00168979 -2.47863 24.2894
955 1 0.75 0.65 -0.00168979 -2.47863 24.2894
1066 1 0.766667 0.6 0.0634991 -2.83005 0.00711982
1085 1 0.766667 0.7 0.0634991 -2.83005 0.00711982
1086 1 0.8 0.7 -0.00168979 -2.47863 24.2894
1087 1 0.816667 0.65 0.0634991 -2.83005 0.00711982
1089 1 0.8 0.6 -0.00168979 -2.47863 24.2894
1091 1 0.85 0.65 -0.00168979 -2.47863 24.2894
1215 1 0.866667 0.7 0.0634991 -2.83005 0.00711982
1218 1 0.866667 0.6 0.0634991 -2.83005 0.00711982
1219 1 0.9 0.6 -0.00168979 -2.47863 24.2894
1221 1 0.916667 0.65 0.0634991 -2.83005 0.00711982
1234 1 0.9 0.7 -0.00168979 -2.47863 24.2894
1235 1 0.95 0.65 -0.00168979 -2.47863 24.2894
1335 1 0.966667 0.6 0.0634991 -2.83005 0.00711982
1348 1 0.966667 0.7 0.0634991 -2.83005 0.00711982
20 1 0.0166667 0.75 0.0634991 -2.83005 0.00711982
25 1 0.0166667 0.85 0.0634991 -2.83005 0.00711982
27 1 0 0.8 -0.00168979 -2.47863 24.2894
28 1 0.05 0.75 -0.00168979 -2.47863 24.2894
29 1 0.05 0.85 -0.00168979 -2.47863 24.2894
110 1 0.0666667 0.8 0.0634991 -2.83005 0.00711982
111 1 0.1 0.8 -0.00168979 -2.47863 24.2894
112 1 0.116667 0.75 0.0634991 -2.83005 0.00711982
113 1 0.116667 0.85 0.0634991 -2.83005 0.00711982
116 1 0.15 0.75 -0.00168979 -2.47863 24.2894
119 1 0.15 0.85 -0.00168979 -2.47863 24.2894
242 1 0.166667 0.8 0.0634991 -2.83005 0.00711982
248 1 0.216667 0.75 0.0634991 -2.83005 0.00711982
255 1 0.216667 0.85 0.0634991 -2.83005 0.00711982
257 1 0.2 0.8 -0.00168979 -2.47863 24.2894
258 1 0.25 0.75 -0.00168979 -2.47863 24.2894
259 1 0.25 0.85 -0.00168979 -2.47863 24.2894
390 1 0.266667 0.8 0.0634991 -2.83005 0.00711982
391 1 0.3 0.8 -0.00168979 -2.47863 24.2894
392 1 0.316667 0.75 0.0634991 -2.83005 0.00711982
393 1 0.316667 0.85 0.0634991 -2.83005 0.00711982
396 1 0.35 0.75 -0.00168979 -2.47863 24.2894
399 1 0.35 0.85 -0.00168979 -2.47863 24.2894
522 1 0.366667 0.8 0.0634991 -2.83005 0.00711982
528 1 0.416667 0.75 0.0634991 -2.83005 0.00711982
535 1 0.416667 0.85 0.0634991 -2.83005 0.00711982
537 1 0.4 0.8 -0.00168979 -2.47863 24.2894
538 1 0.45 0.75 -0.00168979 -2.47863 24.2894
539 1 0.45 0.85 -0.00168979 -2.47863 24.2894
670 1 0.466667 0.8 0.0634991 -2.83005 0.00711982
671 1 0.5 0.8 -0.00168979 -2.47863 24.2894
672 1 0.516667 0.75 0.0634991 -2.83005 0.00711982
673 1 0.516667 0.85 0.0634991 -2.83005 0.00711982
676 1 0.55 0.75 -0.00168979 -2.47863 24.2894
679 1 0.55 0.85 -0.00168979 -2.47863 24.2894
802 1 0.566667 0.8 0.0634991 -2.83005 0.00711982
808 1 0.616667 0.75 0.0634991 -2.83005 0.00711982
815 1 0.616667 0.85 0.0634991 -2.83005 0.00711982
817 1 0.6 0.8 -0.00168979 -2.47863 24.2894
818 1 0.65 0.75 -0.00168979 -2.47863 24.2894
819 1 0.65 0.85 -0.00168979 -2.47863 24.2894
950 1 0.666667 0.8 0.0634991 -2.83005 0.00711982
951 1 0.7 0.8 -0.00168979 -2.47863 24.2894
952 1 0.716667 0.75 0.0634991 -2.83005 0.00711982
953 1 0.716667 0.85 0.0634991 -2.83005 0.00711982
956 1 0.75 0.75 -0.00168979 -2.47863 24.2894
959 1 0.75 0.85 -0.00168979 -2.47863 24.2894
1082 1 0.766667 0.8 0.0634991 -2.83005 0.00711982
1088 1 0.816667 0.75 0.0634991 -2.83005 0.00711982
1095 1 0.816667 0.85 0.0634991 -2.83005 0.00711982
1097 1 0.8 0.8 -0.00168979 -2.47863 24.2894
1098 1 0.85 0.75 -0.00168979 -2.47863 24.2894
1099 1 0.85 0.85 -0.00168979 -2.47863 24.2894
1230 1 0.866667 0.8 0.0634991 -2.83005 0.00711982
1231 1 0.9 0.8 -0.00168979 -2.47863 24.2894
1232 1 0.916667 0.75 0.0634991 -2.83005 0.00711982
1233 1 0.916667 0.85 0.0634991 -2.83005 0.00711982
1236 1 0.95 0.75 -0.00168979 -2.47863 24.2894
1239 1 0.95 0.85 -0.00168979 -2.47863 24.2894
1345 1 0.966667 0.8 0.0634991 -2.83005 0.00711982
24 1 0 0.9 -0.00168979 -2.47863 24.2894
26 1 0.0166667 0.95 0.0634991 -2.83005 0.00711982
30 1 0.05 0.95 -0.00168979 -2.47863 24.2894
107 1 0.0666667 0.9 0.0634991 -2.83005 0.00711982
117 1 0.116667 0.95 0.0634991 -2.83005 0.00711982
118 1 0.1 0.9 -0.00168979 -2.47863 24.2894
120 1 0.15 0.95 -0.00168979 -2.47863 24.2894
253 1 0.166667 0.9 0.0634991 -2.83005 0.00711982
254 1 0.2 0.9 -0.00168979 -2.47863 24.2894
256 1 0.216667 0.95 0.0634991 -2.83005 0.00711982
260 1 0.25 0.95 -0.00168979 -2.47863 24.2894
387 1 0.266667 0.9 0.0634991 -2.83005 0.00711982
397 1 0.316667 0.95 0.0634991 -2.83005 0.00711982
398 1 0.3 0.9 -0.00168979 -2.47863 24.2894
400 1 0.35 0.95 -0.00168979 -2.47863 24.2894
533 1 0.366667 0.9 0.0634991 -2.83005 0.00711982
534 1 0.4 0.9 -0.00168979 -2.47863 24.2894
536 1 0.416667 0.95 0.0634991 -2.83005 0.00711982
540 1 0.45 0.95 -0.00168979 -2.47863 24.2894
667 1 0.466667 0.9 0.0634991 -2.83005 0.00711982
678 1 0.5 0.9 -0.00168979 -2.47863 24.2894
677 1 0.516667 0.95 0.0634991 -2.83005 0.00711982
680 1 0.55 0.95 -0.00168979 -2.47863 24.2894
813 1 0.566667 0.9 0.0634991 -2.83005 0.00711982
814 1 0.6 0.9 -0.00168979 -2.47863 24.2894
816 1 0.616667 0.95 0.0634991 -2.83005 0.00711982
820 1 0.65 0.95 -0.00168979 -2.47863 24.2894
947 1 0.666667 0.9 0.0634991 -2.83005 0.00711982
957 1 0.716667 0.95 0.0634991 -2.83005 0.00711982
958 1 0.7 0.9 -0.00168979 -2.47863 24.2894
960 1 0.75 0.95 -0.00168979 -2.47863 24.2894
1093 1 0.766667 0.9 0.0634991 -2.83005 0.00711982
1094 1 0.8 0.9 -0.00168979 -2.47863 24.2894
1096 1 0.816667 0.95 0.0634991 -2.83005 0.00711982
1100 1 0.85 0.95 -0.00168979 -2.47863 24.2894
1227 1 0.866667 0.9 0.0634991 -2.83005 0.00711982
1237 1 0.916667 0.95 0.0634991 -2.83005 0.00711982
1238 1 0.9 0.9 -0.00168979 -2.47863 24.2894
1240 1 0.95 0.95 -0.00168979 -2.47863 24.2894
1350 1 0.966667 0.9 0.0634991 -2.83005 0.00711982
31 1 0 0.1 0.196209 -2.84952 0.000536918
34 1 0 0 0.196209 -2.84952 0.000536918
35 1 0.0333333 0 0.130066 -2.85058 0.000676216
36 1 0.05 0.05 0.196209 -2.84952 0.000536918
44 1 0.0333333 0.1 0.130066 -2.85058 0.000676216
46 1 0.0833333 0.05 0.130066 -2.85058 0.000676216
135 1 0.1 0 0.196209 -2.84952 0.000536918
150 1 0.1 0.1 0.196209 -2.84952 0.000536918
151 1 0.133333 0.1 0.130066 -2.85058 0.000676216
152 1 0.15 0.05 0.196209 -2.84952 0.000536918
154 1 0.133333 0 0.130066 -2.85058 0.000676216
156 1 0.183333 0.05 0.130066 -2.85058 0.000676216
280 1 0.2 0.1 0.196209 -2.84952 0.000536918
283 1 0.2 0 0.196209 -2.84952 0.000536918
284 1 0.233333 0 0.130066 -2.85058 0.000676216
285 1 0.25 0.05 0.196209 -2.84952 0.000536918
303 1 0.233333 0.1 0.130066 -2.85058 0.000676216
305 1 0.283333 0.05 0.130066 -2.85058 0.000676216
415 1 0.3 0 0.196209 -2.84952 0.000536918
430 1 0.3 0.1 0.196209 -2.84952 0.000536918
431 1 0.333333 0.1 0.130066 -2.85058 0.000676216
434 1 0.333333 0 0.130066 -2.85058 0.000676216
432 1 0.35 0.05 0.196209 -2.84952 0.000536918
436 1 0.383333 0.05 0.130066 -2.85058 0.000676216
560 1 0.4 0.1 0.196209 -2.84952 0.000536918
563 1 0.4 0 0.196209 -2.84952 0.000536918
564 1 0.433333 0 0.130066 -2.85058 0.000676216
565 1 0.45 0.05 0.196209 -2.84952 0.000536918
583 1 0.433333 0.1 0.130066 -2.85058 0.000676216
585 1 0.483333 0.05 0.130066 -2.85058 0.000676216
695 1 0.5 0 0.196209 -2.84952 0.000536918
710 1 0.5 0.1 0.196209 -2.84952 0.000536918
711 1 0.533333 0.1 0.130066 -2.85058 0.000676216
712 1 0.55 0.05 0.196209 -2.84952 0.000536918
714 1 0.533333 0 0.130066 -2.85058 0.000676216
716 1 0.583333 0.05 0.130066 -2.85058 0.000676216
840 1 0.6 0.1 0.196209 -2.84952 0.000536918
843 1 0.6 0 0.196209 -2.84952 0.000536918
844 1 0.633333 0 0.130066 -2.85058 0.000676216
845 1 0.65 0.05 0.196209 -2.84952 0.000536918
863 1 0.633333 0.1 0.130066 -2.85058 0.000676216
865 1 0.683333 0.05 0.130066 -2.85058 0.000676216
975 1 0.7 0 0.196209 -2.84952 0.000536918
990 1 0.7 0.1 0.196209 -2.84952 0.000536918
991 1 0.733333 0.1 0.130066 -2.85058 0.000676216
992 1 0.75 0.05 0.196209 -2.84952 0.000536918
994 1 0.733333 0 0.130066 -2.85058 0.000676216
996 1 0.783333 0.05 0.130066 -2.85058 0.000676216
1120 1 0.8 0.1 0.196209 -2.84952 0.000536918
1123 1 0.8 0 0.196209 -2.84952 0.000536918
1124 1 0.833333 0 0.130066 -2.85058 0.000676216
1143 1 0.833333 0.1 0.130066 -2.85058 0.000676216
1125 1 0.85 0.05 0.196209 -2.84952 0.000536918
1145 1 0.883333 0.05 0.130066 -2.85058 0.000676216
1255 1 0.9 0 0.196209 -2.84952 0.000536918
1270 1 0.9 0.1 0.196209 -2.84952 0.000536918
1271 1 0.933333 0.1 0.130066 -2.85058 0.000676216
1272 1 0.95 0.05 0.196209 -2.84952 0.000536918
1274 1 0.933333 0 0.130066 -2.85058 0.000676216
1276 1 0.983333 0.05 0.130066 -2.85058 0.000676216
40 1 0 0.2 0.196209 -2.84952 0.000536918
41 1 0.0333333 0.2 0.130066 -2.85058 0.000676216
42 1 0.05 0.15 0.196209 -2.84952 0.000536918
43 1 0.05 0.25 0.196209 -2.84952 0.000536918
47 1 0.0833333 0.15 0.130066 -2.85058 0.000676216
60 1 0.0833333 0.25 0.130066 -2.85058 0.000676216
147 1 0.1 0.2 0.196209 -2.84952 0.000536918
153 1 0.15 0.15 0.196209 -2.84952 0.000536918
172 1 0.15 0.25 0.196209 -2.84952 0.000536918
174 1 0.133333 0.2 0.130066 -2.85058 0.000676216
176 1 0.183333 0.15 0.130066 -2.85058 0.000676216
177 1 0.183333 0.25 0.130066 -2.85058 0.000676216
299 1 0.2 0.2 0.196209 -2.84952 0.000536918
300 1 0.233333 0.2 0.130066 -2.85058 0.000676216
301 1 0.25 0.15 0.196209 -2.84952 0.000536918
302 1 0.25 0.25 0.196209 -2.84952 0.000536918
306 1 0.283333 0.15 0.130066 -2.85058 0.000676216
329 1 0.283333 0.25 0.130066 -2.85058 0.000676216
427 1 0.3 0.2 0.196209 -2.84952 0.000536918
454 1 0.333333 0.2 0.130066 -2.85058 0.000676216
433 1 0.35 0.15 0.196209 -2.84952 0.000536918
452 1 0.35 0.25 0.196209 -2.84952 0.000536918
456 1 0.383333 0.15 0.130066 -2.85058 0.000676216
457 1 0.383333 0.25 0.130066 -2.85058 0.000676216
579 1 0.4 0.2 0.196209 -2.84952 0.000536918
580 1 0.433333 0.2 0.130066 -2.85058 0.000676216
581 1 0.45 0.15 0.196209 -2.84952 0.000536918
582 1 0.45 0.25 0.196209 -2.84952 0.000536918
586 1 0.483333 0.15 0.130066 -2.85058 0.000676216
609 1 0.483333 0.25 0.130066 -2.85058 0.000676216
707 1 0.5 0.2 0.196209 -2.84952 0.000536918
713 1 0.55 0.15 0.196209 -2.84952 0.000536918
732 1 0.55 0.25 0.196209 -2.84952 0.000536918
734 1 0.533333 0.2 0.130066 -2.85058 0.000676216
736 1 0.583333 0.15 0.130066 -2.85058 0.000676216
737 1 0.583333 0.25 0.130066 -2.85058 0.000676216
859 1 0.6 0.2 0.196209 -2.84952 0.000536918
860 1 0.633333 0.2 0.130066 -2.85058 0.000676216
861 1 0.65 0.15 0.196209 -2.84952 0.000536918
862 1 0.65 0.25 0.196209 -2.84952 0.000536918
866 1 0.683333 0.15 0.130066 -2.85058 0.000676216
889 1 0.683333 0.25 0.130066 -2.85058 0.000676216
987 1 0.7 0.2 0.196209 -2.84952 0.000536918
993 1 0.75 0.15 0.196209 -2.84952 0.000536918
1012 1 0.75 0.25 0.196209 -2.84952 0.000536918
1014 1 0.733333 0.2 0.130066 -2.85058 0.000676216
1016 1 0.783333 0.15 0.130066 -2.85058 0.000676216
1017 1 0.783333 0.25 0.130066 -2.85058 0.000676216
1139 1 0.8 0.2 0.196209 -2.84952 0.000536918
1140 1 0.833333 0.2 0.130066 -2.85058 0.000676216
1141 1 0.85 0.15 0.196209 -2.84952 0.000536918
1142 1 0.85 0.25 0.196209 -2.84952 0.000536918
1146 1 0.883333 0.15 0.130066 -2.85058 0.000676216
1169 1 0.883333 0.25 0.130066 -2.85058 0.000676216
1267 1 0.9 0.2 0.196209 -2.84952 0.000536918
1273 1 0.95 0.15 0.196209 -2.84952 0.000536918
1292 1 0.95 0.25 0.196209 -2.84952 0.000536918
1294 1 0.933333 0.2 0.130066 -2.85058 0.000676216
1296 1 0.983333 0.15 0.130066 -2.85058 0.000676216
1297 1 0.983333 0.25 0.130066 -2.85058 0.000676216
37 1 0 0.3 0.196209 -2.84952 0.000536918
54 1 8.86546e-18 0.4 0.196209 -2.84952 0.000536918
55 1 0.0333333 0.4 0.130066 -2.85058 0.000676216
56 1 0.05 0.35 0.196209 -2.84952 0.000536918
58 1 0.0333333 0.3 0.130066 -2.85058 0.000676216
61 1 0.0833333 0.35 0.130066 -2.85058 0.000676216
167 1 0.1 0.4 0.196209 -2.84952 0.000536918
170 1 0.1 0.3 0.196209 -2.84952 0.000536918
171 1 0.133333 0.3 0.130066 -2.85058 0.000676216
173 1 0.15 0.35 0.196209 -2.84952 0.000536918
201 1 0.133333 0.4 0.130066 -2.85058 0.000676216
203 1 0.183333 0.35 0.130066 -2.85058 0.000676216
296 1 0.2 0.3 0.196209 -2.84952 0.000536918
323 1 0.2 0.4 0.196209 -2.84952 0.000536918
324 1 0.233333 0.4 0.130066 -2.85058 0.000676216
325 1 0.25 0.35 0.196209 -2.84952 0.000536918
327 1 0.233333 0.3 0.130066 -2.85058 0.000676216
330 1 0.283333 0.35 0.130066 -2.85058 0.000676216
447 1 0.3 0.4 0.196209 -2.84952 0.000536918
450 1 0.3 0.3 0.196209 -2.84952 0.000536918
451 1 0.333333 0.3 0.130066 -2.85058 0.000676216
481 1 0.333333 0.4 0.130066 -2.85058 0.000676216
453 1 0.35 0.35 0.196209 -2.84952 0.000536918
483 1 0.383333 0.35 0.130066 -2.85058 0.000676216
576 1 0.4 0.3 0.196209 -2.84952 0.000536918
603 1 0.4 0.4 0.196209 -2.84952 0.000536918
604 1 0.433333 0.4 0.130066 -2.85058 0.000676216
605 1 0.45 0.35 0.196209 -2.84952 0.000536918
607 1 0.433333 0.3 0.130066 -2.85058 0.000676216
610 1 0.483333 0.35 0.130066 -2.85058 0.000676216
727 1 0.5 0.4 0.196209 -2.84952 0.000536918
730 1 0.5 0.3 0.196209 -2.84952 0.000536918
731 1 0.533333 0.3 0.130066 -2.85058 0.000676216
733 1 0.55 0.35 0.196209 -2.84952 0.000536918
761 1 0.533333 0.4 0.130066 -2.85058 0.000676216
763 1 0.583333 0.35 0.130066 -2.85058 0.000676216
856 1 0.6 0.3 0.196209 -2.84952 0.000536918
883 1 0.6 0.4 0.196209 -2.84952 0.000536918
884 1 0.633333 0.4 0.130066 -2.85058 0.000676216
885 1 0.65 0.35 0.196209 -2.84952 0.000536918
887 1 0.633333 0.3 0.130066 -2.85058 0.000676216
890 1 0.683333 0.35 0.130066 -2.85058 0.000676216
1007 1 0.7 0.4 0.196209 -2.84952 0.000536918
1010 1 0.7 0.3 0.196209 -2.84952 0.000536918
1011 1 0.733333 0.3 0.130066 -2.85058 0.000676216
1013 1 0.75 0.35 0.196209 -2.84952 0.000536918
1041 1 0.733333 0.4 0.130066 -2.85058 0.000676216
1043 1 0.783333 0.35 0.130066 -2.85058 0.000676216
1136 1 0.8 0.3 0.196209 -2.84952 0.000536918
1163 1 0.8 0.4 0.196209 -2.84952 0.000536918
1164 1 0.833333 0.4 0.130066 -2.85058 0.000676216
1167 1 0.833333 0.3 0.130066 -2.85058 0.000676216
1165 1 0.85 0.35 0.196209 -2.84952 0.000536918
1170 1 0.883333 0.35 0.130066 -2.85058 0.000676216
1287 1 0.9 0.4 0.196209 -2.84952 0.000536918
1290 1 0.9 0.3 0.196209 -2.84952 0.000536918
1291 1 0.933333 0.3 0.130066 -2.85058 0.000676216
1293 1 0.95 0.35 0.196209 -2.84952 0.000536918
1316 1 0.933333 0.4 0.130066 -2.85058 0.000676216
1318 1 0.983333 0.35 0.130066 -2.85058 0.000676216
51 1 0 0.5 0.196209 -2.84952 0.000536918
57 1 0.05 0.45 0.196209 -2.84952 0.000536918
74 1 0.05 0.55 0.196209 -2.84952 0.000536918
76 1 0.0333333 0.5 0.130066 -2.85058 0.000676216
78 1 0.0833333 0.45 0.130066 -2.85058 0.000676216
79 1 0.0833333 0.55 0.130066 -2.85058 0.000676216
197 1 0.1 0.5 0.196209 -2.84952 0.000536918
198 1 0.133333 0.5 0.130066 -2.85058 0.000676216
199 1 0.15 0.45 0.196209 -2.84952 0.000536918
200 1 0.15 0.55 0.196209 -2.84952 0.000536918
204 1 0.183333 0.45 0.130066 -2.85058 0.000676216
227 1 0.183333 0.55 0.130066 -2.85058 0.000676216
320 1 0.2 0.5 0.196209 -2.84952 0.000536918
326 1 0.25 0.45 0.196209 -2.84952 0.000536918
352 1 0.25 0.55 0.196209 -2.84952 0.000536918
354 1 0.233333 0.5 0.130066 -2.85058 0.000676216
356 1 0.283333 0.45 0.130066 -2.85058 0.000676216
357 1 0.283333 0.55 0.130066 -2.85058 0.000676216
477 1 0.3 0.5 0.196209 -2.84952 0.000536918
478 1 0.333333 0.5 0.130066 -2.85058 0.000676216
479 1 0.35 0.45 0.196209 -2.84952 0.000536918
480 1 0.35 0.55 0.196209 -2.84952 0.000536918
484 1 0.383333 0.45 0.130066 -2.85058 0.000676216
507 1 0.383333 0.55 0.130066 -2.85058 0.000676216
600 1 0.4 0.5 0.196209 -2.84952 0.000536918
606 1 0.45 0.45 0.196209 -2.84952 0.000536918
632 1 0.45 0.55 0.196209 -2.84952 0.000536918
634 1 0.433333 0.5 0.130066 -2.85058 0.000676216
636 1 0.483333 0.45 0.130066 -2.85058 0.000676216
637 1 0.483333 0.55 0.130066 -2.85058 0.000676216
757 1 0.5 0.5 0.196209 -2.84952 0.000536918
758 1 0.533333 0.5 0.130066 -2.85058 0.000676216
759 1 0.55 0.45 0.196209 -2.84952 0.000536918
760 1 0.55 0.55 0.196209 -2.84952 0.000536918
764 1 0.583333 0.45 0.130066 -2.85058 0.000676216
787 1 0.583333 0.55 0.130066 -2.85058 0.000676216
880 1 0.6 0.5 0.196209 -2.84952 0.000536918
886 1 0.65 0.45 0.196209 -2.84952 0.000536918
912 1 0.65 0.55 0.196209 -2.84952 0.000536918
914 1 0.633333 0.5 0.130066 -2.85058 0.000676216
916 1 0.683333 0.45 0.130066 -2.85058 0.000676216
917 1 0.683333 0.55 0.130066 -2.85058 0.000676216
1037 1 0.7 0.5 0.196209 -2.84952 0.000536918
1038 1 0.733333 0.5 0.130066 -2.85058 0.000676216
1039 1 0.75 0.45 0.196209 -2.84952 0.000536918
1040 1 0.75 0.55 0.196209 -2.84952 0.000536918
1044 1 0.783333 0.45 0.130066 -2.85058 0.000676216
1067 1 0.783333 0.55 0.130066 -2.85058 0.000676216
1160 1 0.8 0.5 0.196209 -2.84952 0.000536918
1194 1 0.833333 0.5 0.130066 -2.85058 0.000676216
1166 1 0.85 0.45 0.196209 -2.84952 0.000536918
1192 1 0.85 0.55 0.196209 -2.84952 0.000536918
1196 1 0.883333 0.45 0.130066 -2.85058 0.000676216