ITEM: TIMESTEP
112
ITEM: NUMBER OF ATOMS
3200
ITEM: BOX BOUNDS pp pp ss
0.0000000000000000e+00 5.0092067021360698e+01
0.0000000000000000e+00 2.8920668379047399e+01
-1.5671243861047840e-01 3.5533785112952430e+01
ITEM: ATOMS id type xs ys zs c_peratom c_csym
1 1 1.55566e-07 0.0999997 0.000102753 -2.4771 24.5082
2 1 0.0166667 0.0500003 0.0651006 -2.83187 0.00500437
5 1 0.0499998 0.0500001 0.000102728 -2.4771 24.5083
45 1 0.0666666 0.0999999 0.0651006 -2.83187 0.00500456
48 1 0.0666665 1.55797e-07 0.0651004 -2.83187 0.00500638
49 1 0.0999999 1.02684e-07 0.000102653 -2.4771 24.5085
50 1 0.116667 0.0499997 0.0651004 -2.83187 0.00500623
66 1 0.0999998 0.0999999 0.000102789 -2.4771 24.5083
67 1 0.15 0.0500002 0.000102888 -2.4771 24.5082
178 1 0.166667 0.1 0.0651004 -2.83187 0.00500746
179 1 0.2 0.1 0.000102748 -2.4771 24.5082
180 1 0.216667 0.0500002 0.0651005 -2.83187 0.00500537
182 1 0.2 1.84467e-07 0.000102884 -2.4771 24.5082
183 1 0.25 0.0500001 0.000102646 -2.4771 24.5084
304 1 0.266667 0.0999997 0.0651003 -2.83187 0.00500752
307 1 0.266666 3.81866e-09 0.0651004 -2.83187 0.00500577
308 1 0.3 7.36748e-08 0.000102763 -2.4771 24.5083
309 1 0.316666 0.0499998 0.0651005 -2.83187 0.00500514
335 1 0.3 0.0999999 0.00010277 -2.4771 24.5083
336 1 0.35 0.0499997 0.000102911 -2.4771 24.5081
458 1 0.366667 0.0999999 0.0651004 -2.83187 0.00500751
459 1 0.4 0.1 0.000102687 -2.4771 24.5084
460 1 0.416666 0.0500002 0.0651006 -2.83187 0.00500411
462 1 0.4 2.26768e-07 0.000102808 -2.4771 24.5082
463 1 0.45 0.05 0.000102903 -2.4771 24.5081
584 1 0.466667 0.1 0.0651005 -2.83187 0.00500531
588 1 0.5 7.99778e-08 0.000102721 -2.4771 24.5084
615 1 0.5 0.0999999 0.000102847 -2.4771 24.5082
589 1 0.516667 0.0499997 0.0651004 -2.83187 0.00500635
616 1 0.55 0.0500002 0.000102797 -2.4771 24.5083
715 1 0.566667 1.20563e-09 0.0651004 -2.83187 0.00500701
738 1 0.566667 0.1 0.0651005 -2.83187 0.00500535
739 1 0.6 0.1 0.000102935 -2.4771 24.5081
740 1 0.616667 0.0500001 0.0651005 -2.83187 0.0050065
743 1 0.65 0.05 0.000102705 -2.4771 24.5084
864 1 0.666667 0.1 0.0651004 -2.83187 0.0050066
867 1 0.666667 6.82114e-08 0.0651004 -2.83187 0.0050057
869 1 0.716667 0.0499999 0.0651004 -2.83187 0.00500624
895 1 0.7 0.1 0.000102779 -2.4771 24.5084
896 1 0.75 0.0500003 0.000102926 -2.4771 24.5081
1018 1 0.766667 0.1 0.0651004 -2.83187 0.00500747
1019 1 0.8 0.0999999 0.000102841 -2.4771 24.5082
1020 1 0.816667 0.05 0.0651006 -2.83187 0.00500479
1023 1 0.85 0.0499997 0.000102732 -2.4771 24.5082
1144 1 0.866667 0.1 0.0651004 -2.83187 0.00500719
1147 1 0.866667 2.39766e-07 0.0651005 -2.83187 0.00500467
1148 1 0.9 9.55149e-08 0.000102888 -2.4771 24.5082
1149 1 0.916667 0.0499998 0.0651005 -2.83187 0.00500611
1175 1 0.9 0.1 0.000102915 -2.4771 24.5081
4 1 1 3.22296e-08 0.000102846 -2.4771 24.5083
1176 1 0.95 0.0499998 0.000102757 -2.4771 24.5083
1275 1 0.966667 5.9967e-08 0.0651004 -2.83187 0.00500639
1298 1 0.966667 0.0999997 0.0651004 -2.83187 0.00500796
3 1 0.0166665 0.15 0.0651004 -2.83187 0.00500688
7 1 0.0166668 0.25 0.0651004 -2.83187 0.00500617
10 1 0.05 0.15 0.000102803 -2.4771 24.5082
11 1 0.05 0.25 0.000102707 -2.4771 24.5083
62 1 0.0666665 0.2 0.0651004 -2.83187 0.00500744
63 1 0.1 0.2 0.000102796 -2.4771 24.5082
64 1 0.116667 0.15 0.0651004 -2.83187 0.0050061
65 1 0.116667 0.25 0.0651004 -2.83187 0.00500548
68 1 0.15 0.15 0.000102759 -2.4771 24.5084
85 1 0.15 0.25 0.000102851 -2.4771 24.5081
175 1 0.166667 0.2 0.0651005 -2.83187 0.00500525
181 1 0.216667 0.15 0.0651005 -2.83187 0.00500526
207 1 0.216667 0.25 0.0651003 -2.83187 0.00500819
209 1 0.2 0.2 0.000102736 -2.4771 24.5083
210 1 0.25 0.15 0.000102691 -2.4771 24.5083
211 1 0.25 0.25 0.000102833 -2.4771 24.5082
331 1 0.266667 0.2 0.0651005 -2.83187 0.00500559
332 1 0.3 0.2 0.000102737 -2.4771 24.5084
333 1 0.316667 0.15 0.0651004 -2.83187 0.00500626
334 1 0.316667 0.25 0.0651004 -2.83187 0.00500639
337 1 0.35 0.15 0.000102799 -2.4771 24.5082
363 1 0.35 0.25 0.000102762 -2.4771 24.5083
455 1 0.366667 0.2 0.0651004 -2.83187 0.00500586
461 1 0.416667 0.15 0.0651004 -2.83187 0.0050058
489 1 0.4 0.2 0.000102648 -2.4771 24.5083
487 1 0.416667 0.25 0.0651004 -2.83187 0.00500599
490 1 0.45 0.15 0.000102675 -2.4771 24.5084
491 1 0.45 0.25 0.000102729 -2.4771 24.5083
611 1 0.466667 0.2 0.0651003 -2.83187 0.00500711
612 1 0.5 0.2 0.000102709 -2.4771 24.5083
613 1 0.516667 0.15 0.0651005 -2.83187 0.00500627
614 1 0.516667 0.25 0.0651005 -2.83187 0.00500469
617 1 0.55 0.15 0.000102693 -2.4771 24.5085
643 1 0.55 0.25 0.00010277 -2.4771 24.5082
735 1 0.566666 0.2 0.0651003 -2.83187 0.00500746
741 1 0.616667 0.15 0.0651004 -2.83187 0.00500658
767 1 0.616667 0.25 0.0651006 -2.83187 0.00500433
769 1 0.6 0.2 0.000102743 -2.4771 24.5084
770 1 0.65 0.15 0.000102701 -2.4771 24.5083
771 1 0.65 0.25 0.000102945 -2.4771 24.5082
891 1 0.666667 0.2 0.0651004 -2.83187 0.00500716
892 1 0.7 0.2 0.000102912 -2.4771 24.5081
893 1 0.716667 0.15 0.0651005 -2.83187 0.00500658
894 1 0.716667 0.25 0.0651006 -2.83187 0.00500464
897 1 0.75 0.15 0.000102878 -2.4771 24.5082
923 1 0.75 0.25 0.000102842 -2.4771 24.5082
1015 1 0.766667 0.2 0.0651004 -2.83187 0.00500668
1021 1 0.816667 0.15 0.0651005 -2.83187 0.00500562
1047 1 0.816667 0.25 0.0651004 -2.83187 0.00500675
1049 1 0.8 0.2 0.000102706 -2.4771 24.5084
1050 1 0.85 0.15 0.000102629 -2.4771 24.5086
1051 1 0.85 0.25 0.0001029 -2.4771 24.5082
1171 1 0.866667 0.2 0.0651005 -2.83187 0.00500607
1172 1 0.9 0.2 0.000102911 -2.4771 24.5082
9 1 1 0.2 0.000102708 -2.4771 24.5083
1173 1 0.916667 0.15 0.0651006 -2.83187 0.00500539
1174 1 0.916667 0.25 0.0651005 -2.83187 0.00500682
1177 1 0.95 0.15 0.000102918 -2.4771 24.5082
1203 1 0.95 0.25 0.000102915 -2.4771 24.5081
1295 1 0.966667 0.2 0.0651006 -2.83187 0.00500466
6 1 6.51908e-08 0.3 0.000102942 -2.4771 24.508
8 1 0.0166665 0.35 0.0651005 -2.83187 0.00500596
16 1 0.05 0.35 0.000102928 -2.4771 24.5081
59 1 0.0666669 0.3 0.0651003 -2.83187 0.00500697
80 1 0.0666666 0.4 0.0651005 -2.83187 0.00500511
81 1 0.0999999 0.4 0.000102765 -2.4771 24.5082
82 1 0.116667 0.35 0.0651003 -2.83187 0.00500768
84 1 0.1 0.3 0.000102573 -2.4771 24.5085
86 1 0.15 0.35 0.000102728 -2.4771 24.5083
202 1 0.166667 0.4 0.0651004 -2.83187 0.00500592
205 1 0.166667 0.3 0.0651005 -2.83187 0.0050055
206 1 0.2 0.3 0.000102846 -2.4771 24.5082
208 1 0.216667 0.35 0.0651005 -2.83187 0.00500575
233 1 0.2 0.4 0.000102888 -2.4771 24.5082
234 1 0.25 0.35 0.000102734 -2.4771 24.5083
328 1 0.266667 0.3 0.0651004 -2.83187 0.00500619
358 1 0.266667 0.4 0.0651004 -2.83187 0.00500711
359 1 0.3 0.4 0.000102755 -2.4771 24.5082
360 1 0.316667 0.35 0.0651004 -2.83187 0.00500594
362 1 0.3 0.3 0.000102742 -2.4771 24.5082
364 1 0.35 0.35 0.000102772 -2.4771 24.5082
482 1 0.366667 0.4 0.0651004 -2.83187 0.00500542
485 1 0.366667 0.3 0.0651003 -2.83187 0.00500777
486 1 0.4 0.3 0.000102725 -2.4771 24.5082
513 1 0.4 0.4 0.000102727 -2.4771 24.5083
488 1 0.416667 0.35 0.0651004 -2.83187 0.00500627
514 1 0.45 0.35 0.000102631 -2.4771 24.5083
608 1 0.466667 0.3 0.0651003 -2.83187 0.00500678
638 1 0.466667 0.4 0.0651004 -2.83187 0.00500657
639 1 0.5 0.4 0.000102871 -2.4771 24.5081
642 1 0.5 0.3 0.000102759 -2.4771 24.5083
640 1 0.516667 0.35 0.0651003 -2.83187 0.00500699
644 1 0.55 0.35 0.000102636 -2.4771 24.5083
762 1 0.566667 0.4 0.0651003 -2.83187 0.00500697
765 1 0.566667 0.3 0.0651005 -2.83187 0.00500485
766 1 0.6 0.3 0.000102854 -2.4771 24.5081
768 1 0.616667 0.35 0.0651004 -2.83187 0.00500688
793 1 0.6 0.4 0.00010275 -2.4771 24.5083
794 1 0.65 0.35 0.000102746 -2.4771 24.5084
888 1 0.666667 0.3 0.0651005 -2.83187 0.00500536
918 1 0.666667 0.4 0.0651005 -2.83187 0.00500577
919 1 0.7 0.4 0.00010283 -2.4771 24.5082
920 1 0.716667 0.35 0.0651005 -2.83187 0.00500673
922 1 0.7 0.3 0.000102801 -2.4771 24.5083
924 1 0.75 0.35 0.000102898 -2.4771 24.5082
1042 1 0.766667 0.4 0.0651005 -2.83187 0.00500537
1045 1 0.766667 0.3 0.0651005 -2.83187 0.00500638
1046 1 0.8 0.3 0.0001028 -2.4771 24.5083
1048 1 0.816667 0.35 0.0651004 -2.83187 0.00500642
1073 1 0.8 0.4 0.000102825 -2.4771 24.5083
1074 1 0.85 0.35 0.000102917 -2.4771 24.5081
1168 1 0.866667 0.3 0.0651005 -2.83187 0.00500593
1198 1 0.866667 0.4 0.0651004 -2.83187 0.00500763
1199 1 0.9 0.4 0.000102826 -2.4771 24.5081
1202 1 0.9 0.3 0.000102778 -2.4771 24.5083
15 1 1 0.4 0.000102628 -2.4771 24.5085
1200 1 0.916667 0.35 0.0651004 -2.83187 0.00500709
1204 1 0.95 0.35 0.000102597 -2.4771 24.5085
1317 1 0.966667 0.4 0.0651005 -2.83187 0.00500454
1320 1 0.966667 0.3 0.0651005 -2.83187 0.00500634
13 1 0.0166665 0.45 0.0651003 -2.83187 0.0050075
14 1 0.0166666 0.55 0.0651004 -2.83187 0.00500626
17 1 0.0500002 0.45 0.000102788 -2.4771 24.5081
22 1 0.0500002 0.55 0.000102854 -2.4771 24.5081
77 1 0.0666668 0.5 0.0651004 -2.83187 0.00500593
83 1 0.116667 0.45 0.0651004 -2.83187 0.00500661
100 1 0.116667 0.55 0.0651005 -2.83187 0.00500536
102 1 0.0999999 0.5 0.000102713 -2.4771 24.5084
103 1 0.15 0.45 0.000102734 -2.4771 24.5083
104 1 0.15 0.55 0.000102833 -2.4771 24.5082
229 1 0.166667 0.5 0.0651004 -2.83187 0.0050069
230 1 0.2 0.5 0.000102787 -2.4771 24.5083
231 1 0.216667 0.45 0.0651005 -2.83187 0.005006
232 1 0.216667 0.55 0.0651005 -2.83187 0.00500533
250 1 0.25 0.55 0.00010273 -2.4771 24.5083
235 1 0.25 0.45 0.000102797 -2.4771 24.5083
355 1 0.266667 0.5 0.0651004 -2.83187 0.00500668
361 1 0.316667 0.45 0.0651004 -2.83187 0.00500594
380 1 0.316667 0.55 0.0651003 -2.83187 0.00500792
382 1 0.3 0.5 0.000102743 -2.4771 24.5082
383 1 0.35 0.45 0.000102802 -2.4771 24.5082
384 1 0.35 0.55 0.000102776 -2.4771 24.5083
509 1 0.366667 0.5 0.0651005 -2.83187 0.00500484
510 1 0.4 0.5 0.000102723 -2.4771 24.5082
511 1 0.416667 0.45 0.0651003 -2.83187 0.00500791
512 1 0.416667 0.55 0.0651006 -2.83187 0.00500399
515 1 0.45 0.45 0.000102671 -2.4771 24.5083
530 1 0.45 0.55 0.000102707 -2.4771 24.5083
635 1 0.466667 0.5 0.0651003 -2.83187 0.00500748
662 1 0.5 0.5 0.000102767 -2.4771 24.5082
641 1 0.516667 0.45 0.0651005 -2.83187 0.00500504
660 1 0.516667 0.55 0.0651004 -2.83187 0.00500636
663 1 0.55 0.45 0.000102756 -2.4771 24.5084
664 1 0.55 0.55 0.000102827 -2.4771 24.5081
789 1 0.566667 0.5 0.0651004 -2.83187 0.00500588
790 1 0.6 0.5 0.000102811 -2.4771 24.5082
791 1 0.616667 0.45 0.0651003 -2.83187 0.00500738
792 1 0.616667 0.55 0.0651004 -2.83187 0.00500601
795 1 0.65 0.45 0.000102671 -2.4771 24.5083
810 1 0.65 0.55 0.000102642 -2.4771 24.5083
915 1 0.666667 0.5 0.0651004 -2.83187 0.0050068
921 1 0.716667 0.45 0.0651004 -2.83187 0.00500678
940 1 0.716667 0.55 0.0651004 -2.83187 0.00500681
942 1 0.7 0.5 0.000102694 -2.4771 24.5084
944 1 0.75 0.55 0.000102721 -2.4771 24.5083
943 1 0.75 0.45 0.000102847 -2.4771 24.5082
1069 1 0.766667 0.5 0.0651005 -2.83187 0.00500479
1070 1 0.8 0.5 0.000102672 -2.4771 24.5085
1071 1 0.816667 0.45 0.0651004 -2.83187 0.0050062
1072 1 0.816667 0.55 0.0651004 -2.83187 0.00500543
1075 1 0.85 0.45 0.00010271 -2.4771 24.5084
1090 1 0.85 0.55 0.000102796 -2.4771 24.5082
1195 1 0.866667 0.5 0.0651004 -2.83187 0.00500694
1201 1 0.916666 0.45 0.0651005 -2.83187 0.00500473
1222 1 0.9 0.5 0.000102668 -2.4771 24.5083
12 1 1 0.5 0.000102686 -2.4771 24.5085
1220 1 0.916667 0.55 0.0651004 -2.83187 0.00500628
1223 1 0.95 0.45 0.000102856 -2.4771 24.508
1224 1 0.95 0.55 0.000102692 -2.4771 24.5083
1338 1 0.966667 0.5 0.0651004 -2.83187 0.00500692
18 1 1.05497e-07 0.7 0.000102775 -2.4771 24.5084
19 1 0.0166668 0.65 0.0651004 -2.83187 0.00500583
21 1 1.68545e-07 0.6 0.000102888 -2.4771 24.5081
23 1 0.0499999 0.65 0.000102623 -2.4771 24.5085
95 1 0.0666665 0.7 0.0651004 -2.83187 0.00500584
98 1 0.0666665 0.6 0.0651004 -2.83187 0.00500602
99 1 0.1 0.6 0.000102829 -2.4771 24.5083
101 1 0.116667 0.65 0.0651004 -2.83187 0.00500741
114 1 0.0999999 0.7 0.000102888 -2.4771 24.5082
115 1 0.15 0.65 0.000102731 -2.4771 24.5085
245 1 0.166667 0.7 0.0651005 -2.83187 0.00500524
226 1 0.166667 0.6 0.0651004 -2.83187 0.00500702
246 1 0.2 0.7 0.000102873 -2.4771 24.5082
247 1 0.216667 0.65 0.0651004 -2.83187 0.00500712
249 1 0.2 0.6 0.000102741 -2.4771 24.5083
251 1 0.25 0.65 0.00010276 -2.4771 24.5083
375 1 0.266667 0.7 0.0651005 -2.83187 0.00500627
378 1 0.266667 0.6 0.0651006 -2.83187 0.00500477
379 1 0.3 0.6 0.000102796 -2.4771 24.5082
381 1 0.316666 0.65 0.0651005 -2.83187 0.0050057
394 1 0.3 0.7 0.000102817 -2.4771 24.5083
395 1 0.35 0.65 0.000102833 -2.4771 24.5082
506 1 0.366667 0.6 0.0651004 -2.83187 0.00500759
525 1 0.366667 0.7 0.0651003 -2.83187 0.00500808
526 1 0.4 0.7 0.000102634 -2.4771 24.5084
529 1 0.4 0.6 0.00010286 -2.4771 24.5081
527 1 0.416667 0.65 0.0651004 -2.83187 0.00500641
531 1 0.45 0.65 0.000102887 -2.4771 24.5081
655 1 0.466667 0.7 0.0651005 -2.83187 0.00500627
658 1 0.466667 0.6 0.0651004 -2.83187 0.0050063
659 1 0.5 0.6 0.000102653 -2.4771 24.5084
674 1 0.5 0.7 0.000102724 -2.4771 24.5083
661 1 0.516667 0.65 0.0651004 -2.83187 0.00500562
675 1 0.55 0.65 0.000102699 -2.4771 24.5083
786 1 0.566667 0.6 0.0651003 -2.83187 0.00500751
805 1 0.566667 0.7 0.0651003 -2.83187 0.00500772
806 1 0.6 0.7 0.000102832 -2.4771 24.5083
807 1 0.616667 0.65 0.0651004 -2.83187 0.00500642
809 1 0.6 0.6 0.000102682 -2.4771 24.5082
811 1 0.65 0.65 0.000102752 -2.4771 24.5082
938 1 0.666667 0.6 0.0651004 -2.83187 0.00500615
935 1 0.666667 0.7 0.0651004 -2.83187 0.00500624
939 1 0.7 0.6 0.000102713 -2.4771 24.5082
941 1 0.716667 0.65 0.0651004 -2.83187 0.00500574
954 1 0.7 0.7 0.000102753 -2.4771 24.5083
955 1 0.75 0.65 0.000102674 -2.4771 24.5083
1066 1 0.766667 0.6 0.0651004 -2.83187 0.00500544
1085 1 0.766667 0.7 0.0651003 -2.83187 0.00500728
1086 1 0.8 0.7 0.000102718 -2.4771 24.5083
1087 1 0.816667 0.65 0.0651003 -2.83187 0.00500755
1089 1 0.8 0.6 0.000102704 -2.4771 24.5084
1091 1 0.85 0.65 0.000102783 -2.4771 24.5081
1215 1 0.866667 0.7 0.0651004 -2.83187 0.00500686
1218 1 0.866667 0.6 0.0651005 -2.83187 0.00500532
1219 1 0.9 0.6 0.000102837 -2.4771 24.5082
1234 1 0.9 0.7 0.000102715 -2.4771 24.5083
1221 1 0.916667 0.65 0.0651004 -2.83187 0.00500619
1235 1 0.95 0.65 0.000102836 -2.4771 24.5082
1335 1 0.966667 0.6 0.0651005 -2.83187 0.00500586
1348 1 0.966667 0.7 0.0651004 -2.83187 0.00500686
20 1 0.0166667 0.75 0.0651005 -2.83187 0.00500601
25 1 0.0166666 0.85 0.0651005 -2.83187 0.00500659
28 1 0.0499999 0.75 0.000102774 -2.4771 24.5083
29 1 0.0499999 0.85 0.000102828 -2.4771 24.5082
110 1 0.0666666 0.8 0.0651004 -2.83187 0.00500595
111 1 0.0999998 0.8 0.000102843 -2.4771 24.5082
112 1 0.116667 0.75 0.0651004 -2.83187 0.00500683
113 1 0.116667 0.85 0.0651004 -2.83187 0.00500607
116 1 0.15 0.75 0.000102698 -2.4771 24.5084
119 1 0.15 0.85 0.00010264 -2.4771 24.5083
242 1 0.166667 0.8 0.0651004 -2.83187 0.0050066
248 1 0.216666 0.75 0.0651005 -2.83187 0.00500569
255 1 0.216667 0.85 0.0651003 -2.83187 0.00500802
257 1 0.2 0.8 0.000102706 -2.4771 24.5083
259 1 0.25 0.85 0.000102745 -2.4771 24.5083
258 1 0.25 0.75 0.000102867 -2.4771 24.5081
390 1 0.266667 0.8 0.0651005 -2.83187 0.00500605
391 1 0.3 0.8 0.000102868 -2.4771 24.5082
392 1 0.316667 0.75 0.0651005 -2.83187 0.00500591
393 1 0.316667 0.85 0.0651006 -2.83187 0.00500518
396 1 0.35 0.75 0.000102673 -2.4771 24.5084
399 1 0.35 0.85 0.000102778 -2.4771 24.5082
522 1 0.366667 0.8 0.0651002 -2.83187 0.00500854
535 1 0.416667 0.85 0.0651003 -2.83187 0.00500769
537 1 0.4 0.8 0.000102689 -2.4771 24.5083
528 1 0.416667 0.75 0.0651004 -2.83187 0.00500595
538 1 0.45 0.75 0.000102861 -2.4771 24.5081
539 1 0.45 0.85 0.000102826 -2.4771 24.5082
670 1 0.466667 0.8 0.0651006 -2.83187 0.00500462
671 1 0.5 0.8 0.000102795 -2.4771 24.5082
672 1 0.516667 0.75 0.0651005 -2.83187 0.00500584
673 1 0.516667 0.85 0.0651004 -2.83187 0.00500698
676 1 0.55 0.75 0.000102866 -2.4771 24.5082
679 1 0.55 0.85 0.000102652 -2.4771 24.5084
802 1 0.566667 0.8 0.0651005 -2.83187 0.00500624
808 1 0.616666 0.75 0.0651005 -2.83187 0.00500646
815 1 0.616667 0.85 0.0651005 -2.83187 0.00500648
817 1 0.6 0.8 0.000102942 -2.4771 24.5082
818 1 0.65 0.75 0.000102866 -2.4771 24.5083
819 1 0.65 0.85 0.0001029 -2.4771 24.5081
950 1 0.666667 0.8 0.0651005 -2.83187 0.00500548
951 1 0.7 0.8 0.000102817 -2.4771 24.5082
952 1 0.716667 0.75 0.0651005 -2.83187 0.00500489
953 1 0.716666 0.85 0.0651004 -2.83187 0.00500755
956 1 0.75 0.75 0.000102711 -2.4771 24.5084
959 1 0.75 0.85 0.000102871 -2.4771 24.5081
1082 1 0.766667 0.8 0.0651005 -2.83187 0.00500486
1088 1 0.816667 0.75 0.0651004 -2.83187 0.00500664
1095 1 0.816667 0.85 0.0651005 -2.83187 0.00500501
1097 1 0.8 0.8 0.000102716 -2.4771 24.5084
1098 1 0.85 0.75 0.000102775 -2.4771 24.5083
1099 1 0.85 0.85 0.000102872 -2.4771 24.5081
1230 1 0.866667 0.8 0.0651006 -2.83187 0.00500423
1231 1 0.9 0.8 0.000102699 -2.4771 24.5083
1233 1 0.916667 0.85 0.0651003 -2.83187 0.00500839
27 1 1 0.8 0.000102893 -2.4771 24.5081
1232 1 0.916667 0.75 0.0651004 -2.83187 0.00500636
1236 1 0.95 0.75 0.000102801 -2.4771 24.5081
1239 1 0.95 0.85 0.000102806 -2.4771 24.5082
1345 1 0.966667 0.8 0.0651006 -2.83187 0.00500396
24 1 1.49884e-07 0.9 0.000102811 -2.4771 24.5082
26 1 0.0166667 0.95 0.0651005 -2.83187 0.0050047
30 1 0.0500002 0.95 0.000102735 -2.4771 24.5083
107 1 0.0666668 0.9 0.0651004 -2.83187 0.00500627
117 1 0.116667 0.95 0.0651003 -2.83187 0.0050076
118 1 0.0999998 0.9 0.000102779 -2.4771 24.5082
120 1 0.15 0.95 0.000102712 -2.4771 24.5083
253 1 0.166667 0.9 0.0651005 -2.83187 0.00500503
155 1 0.166667 1 0.0651004 -2.83187 0.005007
254 1 0.2 0.9 0.000102712 -2.4771 24.5083
256 1 0.216667 0.95 0.0651004 -2.83187 0.00500765
260 1 0.25 0.95 0.000102803 -2.4771 24.5081
387 1 0.266667 0.9 0.0651006 -2.83187 0.00500354
397 1 0.316667 0.95 0.0651004 -2.83187 0.00500699
398 1 0.3 0.9 0.000102949 -2.4771 24.5081
435 1 0.366667 1 0.0651004 -2.83187 0.00500768
400 1 0.35 0.95 0.000102869 -2.4771 24.5083
533 1 0.366667 0.9 0.0651006 -2.83187 0.00500471
534 1 0.4 0.9 0.000102822 -2.4771 24.5083
536 1 0.416667 0.95 0.0651006 -2.83187 0.00500452
587 1 0.466667 1 0.0651004 -2.83187 0.00500723
540 1 0.45 0.95 0.000102894 -2.4771 24.5082
667 1 0.466667 0.9 0.0651004 -2.83187 0.00500648
678 1 0.5 0.9 0.000102672 -2.4771 24.5083
677 1 0.516667 0.95 0.0651005 -2.83187 0.00500552
680 1 0.55 0.95 0.000102839 -2.4771 24.5082
813 1 0.566667 0.9 0.0651004 -2.83187 0.00500677
742 1 0.6 1 0.000102884 -2.4771 24.508
814 1 0.6 0.9 0.00010264 -2.4771 24.5084
816 1 0.616667 0.95 0.0651005 -2.83187 0.00500443
820 1 0.65 0.95 0.00010277 -2.4771 24.5082
947 1 0.666667 0.9 0.0651004 -2.83187 0.00500664
868 1 0.7 1 0.000102789 -2.4771 24.5083
957 1 0.716667 0.95 0.0651004 -2.83187 0.0050065
958 1 0.7 0.9 0.000102629 -2.4771 24.5085
960 1 0.75 0.95 0.00010277 -2.4771 24.5083
995 1 0.766667 1 0.0651005 -2.83187 0.00500641
1022 1 0.8 1 0.000102878 -2.4771 24.5083
1093 1 0.766667 0.9 0.0651005 -2.83187 0.00500603
1094 1 0.8 0.9 0.00010286 -2.4771 24.5083
1096 1 0.816667 0.95 0.0651004 -2.83187 0.00500739
1100 1 0.85 0.95 0.000102649 -2.4771 24.5084
1227 1 0.866667 0.9 0.0651004 -2.83187 0.00500559
1238 1 0.9 0.9 0.00010279 -2.4771 24.5083
1237 1 0.916667 0.95 0.0651005 -2.83187 0.00500569
1240 1 0.95 0.95 0.000102746 -2.4771 24.5083
1350 1 0.966667 0.9 0.0651005 -2.83187 0.00500564
36 1 0.0500001 0.0499997 0.19741 -2.85004 3.85214e-08
44 1 0.0333332 0.0999998 0.131243 -2.8512 2.33184e-06
46 1 0.0833335 0.0499999 0.131243 -2.8512 2.32529e-06
150 1 0.1 0.1 0.19741 -2.85004 3.53916e-08
151 1 0.133333 0.1 0.131243 -2.8512 2.37109e-06
152 1 0.15 0.0499999 0.19741 -2.85004 3.38094e-08
156 1 0.183333 0.05 0.131243 -2.8512 2.34103e-06
280 1 0.2 0.1 0.19741 -2.85004 3.79836e-08
284 1 0.233333 1.11071e-07 0.131243 -2.8512 2.3495e-06
285 1 0.25 0.0499999 0.19741 -2.85004 3.57685e-08
303 1 0.233333 0.1 0.131243 -2.8512 2.33329e-06
305 1 0.283333 0.0500002 0.131243 -2.8512 2.3183e-06
430 1 0.3 0.1 0.19741 -2.85004 3.79907e-08
431 1 0.333333 0.1 0.131243 -2.8512 2.36549e-06
434 1 0.333333 2.24051e-07 0.131243 -2.8512 2.3601e-06
432 1 0.35 0.0500003 0.19741 -2.85004 3.47151e-08
436 1 0.383333 0.0499999 0.131243 -2.8512 2.33376e-06
560 1 0.4 0.0999997 0.19741 -2.85004 3.58404e-08
563 1 0.4 7.79891e-08 0.19741 -2.85004 3.23358e-08
564 1 0.433333 3.30343e-07 0.131243 -2.8512 2.38222e-06
565 1 0.45 0.0499997 0.19741 -2.85003 3.48245e-08
583 1 0.433333 0.1 0.131243 -2.8512 2.33141e-06
585 1 0.483333 0.05 0.131242 -2.8512 2.39709e-06
710 1 0.5 0.0999998 0.19741 -2.85004 3.73102e-08
711 1 0.533333 0.1 0.131243 -2.8512 2.31053e-06
712 1 0.55 0.0499998 0.19741 -2.85004 3.5973e-08
714 1 0.533333 1.10326e-07 0.131243 -2.8512 2.33217e-06
716 1 0.583333 0.0499998 0.131243 -2.8512 2.35676e-06
840 1 0.6 0.1 0.19741 -2.85004 3.85985e-08
844 1 0.633333 2.24635e-08 0.131243 -2.8512 2.3578e-06
845 1 0.65 0.0499997 0.19741 -2.85004 4.24446e-08
863 1 0.633333 0.1 0.131243 -2.8512 2.33593e-06
865 1 0.683333 0.0500003 0.131243 -2.8512 2.38125e-06
975 1 0.7 1.52396e-07 0.19741 -2.85004 3.65373e-08
990 1 0.7 0.0999998 0.19741 -2.85004 3.4485e-08
991 1 0.733333 0.1 0.131243 -2.8512 2.34587e-06
992 1 0.75 0.0499997 0.19741 -2.85004 3.96566e-08
994 1 0.733333 7.73562e-08 0.131243 -2.8512 2.34547e-06
996 1 0.783333 0.0499999 0.131243 -2.8512 2.35342e-06
1120 1 0.8 0.1 0.19741 -2.85004 3.46951e-08
1123 1 0.8 3.23937e-07 0.19741 -2.85004 3.90575e-08
1143 1 0.833333 0.1 0.131243 -2.8512 2.32387e-06
1125 1 0.85 0.05 0.19741 -2.85004 3.4924e-08
1145 1 0.883333 0.0500002 0.131243 -2.8512 2.36332e-06
1255 1 0.9 1.558e-07 0.19741 -2.85004 3.2229e-08
1270 1 0.9 0.1 0.19741 -2.85004 4.10734e-08
31 1 1 0.1 0.19741 -2.85004 3.46957e-08
1271 1 0.933333 0.0999997 0.131243 -2.8512 2.35754e-06
1272 1 0.95 0.0500003 0.19741 -2.85003 4.08096e-08
1274 1 0.933333 1.27782e-07 0.131243 -2.8512 2.36062e-06
1276 1 0.983333 0.0500001 0.131243 -2.8512 2.33705e-06
40 1 1.2092e-07 0.2 0.19741 -2.85004 3.55751e-08
41 1 0.0333335 0.2 0.131243 -2.8512 2.31791e-06
42 1 0.0500001 0.15 0.19741 -2.85004 3.84061e-08
43 1 0.05 0.25 0.19741 -2.85004 3.7227e-08
47 1 0.0833333 0.15 0.131243 -2.8512 2.34864e-06
60 1 0.0833333 0.25 0.131243 -2.8512 2.34065e-06
147 1 0.0999999 0.2 0.19741 -2.85004 3.92307e-08
153 1 0.15 0.15 0.19741 -2.85003 3.20542e-08
172 1 0.15 0.25 0.19741 -2.85004 3.30673e-08
174 1 0.133333 0.2 0.131243 -2.8512 2.3659e-06
176 1 0.183333 0.15 0.131243 -2.8512 2.32131e-06
177 1 0.183333 0.25 0.131243 -2.8512 2.35241e-06
299 1 0.2 0.2 0.19741 -2.85004 3.85915e-08
300 1 0.233333 0.2 0.131243 -2.8512 2.34181e-06
301 1 0.25 0.15 0.19741 -2.85004 3.86691e-08
302 1 0.25 0.25 0.19741 -2.85004 4.00105e-08
306 1 0.283333 0.15 0.131243 -2.8512 2.35178e-06
329 1 0.283333 0.25 0.131243 -2.8512 2.34207e-06
427 1 0.3 0.2 0.19741 -2.85004 3.58882e-08
454 1 0.333333 0.2 0.131243 -2.8512 2.38213e-06
433 1 0.35 0.15 0.19741 -2.85004 3.8812e-08
452 1 0.35 0.25 0.19741 -2.85003 3.82839e-08
456 1 0.383333 0.15 0.131243 -2.8512 2.32749e-06
457 1 0.383333 0.25 0.131243 -2.8512 2.35457e-06
579 1 0.4 0.2 0.19741 -2.85004 3.29842e-08
580 1 0.433333 0.2 0.131243 -2.8512 2.34882e-06
581 1 0.45 0.15 0.19741 -2.85004 3.79263e-08
582 1 0.45 0.25 0.19741 -2.85004 4.1259e-08
586 1 0.483333 0.15 0.131243 -2.8512 2.33219e-06
609 1 0.483333 0.25 0.131243 -2.8512 2.35091e-06
707 1 0.5 0.2 0.19741 -2.85004 3.68164e-08
713 1 0.55 0.15 0.19741 -2.85004 4.21933e-08
732 1 0.55 0.25 0.19741 -2.85004 3.97102e-08
734 1 0.533333 0.2 0.131243 -2.8512 2.33673e-06
737 1 0.583333 0.25 0.131243 -2.8512 2.35253e-06
736 1 0.583333 0.15 0.131243 -2.8512 2.36892e-06
859 1 0.6 0.2 0.19741 -2.85004 3.51015e-08
860 1 0.633333 0.2 0.131243 -2.8512 2.32993e-06
861 1 0.65 0.15 0.19741 -2.85004 3.39184e-08
862 1 0.65 0.25 0.19741 -2.85004 4.00783e-08
866 1 0.683333 0.15 0.131243 -2.8512 2.34102e-06
889 1 0.683333 0.25 0.131243 -2.8512 2.36255e-06
987 1 0.7 0.2 0.19741 -2.85004 3.68323e-08
993 1 0.75 0.15 0.19741 -2.85004 4.40929e-08
1012 1 0.75 0.25 0.19741 -2.85004 4.03517e-08
1014 1 0.733333 0.2 0.131243 -2.8512 2.38339e-06
1016 1 0.783333 0.15 0.131243 -2.8512 2.34315e-06
1017 1 0.783333 0.25 0.131243 -2.8512 2.31575e-06
1139 1 0.8 0.2 0.19741 -2.85004 3.09728e-08
1140 1 0.833333 0.2 0.131243 -2.8512 2.35743e-06
1141 1 0.85 0.15 0.19741 -2.85004 3.88937e-08
1142 1 0.85 0.25 0.19741 -2.85004 3.87621e-08
1146 1 0.883333 0.15 0.131243 -2.8512 2.32685e-06
1169 1 0.883333 0.25 0.131243 -2.8512 2.34312e-06
1267 1 0.9 0.2 0.19741 -2.85004 3.28306e-08
1273 1 0.95 0.15 0.19741 -2.85004 3.74229e-08
1292 1 0.95 0.25 0.19741 -2.85004 3.54458e-08
1294 1 0.933333 0.2 0.131243 -2.8512 2.3552e-06
1296 1 0.983333 0.15 0.131243 -2.8512 2.35653e-06
1297 1 0.983333 0.25 0.131243 -2.8512 2.36397e-06
54 1 1.27527e-07 0.4 0.19741 -2.85004 3.60676e-08
55 1 0.0333334 0.4 0.131243 -2.8512 2.34188e-06
56 1 0.0500002 0.35 0.19741 -2.85004 3.75834e-08
58 1 0.0333334 0.3 0.131243 -2.8512 2.3838e-06
61 1 0.0833334 0.35 0.131243 -2.8512 2.34173e-06
167 1 0.0999999 0.4 0.19741 -2.85004 4.16988e-08
170 1 0.1 0.3 0.19741 -2.85004 3.85883e-08
171 1 0.133333 0.3 0.131243 -2.8512 2.34414e-06
173 1 0.15 0.35 0.19741 -2.85004 3.92687e-08
201 1 0.133333 0.4 0.131243 -2.8512 2.35943e-06
203 1 0.183333 0.35 0.131243 -2.8512 2.35195e-06
296 1 0.2 0.3 0.19741 -2.85004 3.10405e-08
323 1 0.2 0.4 0.19741 -2.85003 4.03293e-08
324 1 0.233333 0.4 0.131243 -2.8512 2.34909e-06
325 1 0.25 0.35 0.19741 -2.85004 3.78286e-08
327 1 0.233333 0.3 0.131243 -2.8512 2.33764e-06
330 1 0.283333 0.35 0.131243 -2.8512 2.35864e-06
447 1 0.3 0.4 0.19741 -2.85004 3.76743e-08
450 1 0.3 0.3 0.19741 -2.85004 3.61856e-08
451 1 0.333333 0.3 0.131243 -2.8512 2.37204e-06
481 1 0.333333 0.4 0.131243 -2.8512 2.3388e-06
453 1 0.35 0.35 0.19741 -2.85004 3.54753e-08
483 1 0.383333 0.35 0.131243 -2.8512 2.3639e-06
576 1 0.4 0.3 0.19741 -2.85004 3.44584e-08
603 1 0.4 0.4 0.19741 -2.85004 3.29271e-08
604 1 0.433333 0.4 0.131243 -2.8512 2.3354e-06
605 1 0.45 0.35 0.19741 -2.85004 3.82755e-08
607 1 0.433334 0.3 0.131243 -2.8512 2.32439e-06
610 1 0.483333 0.35 0.131243 -2.8512 2.37905e-06
727 1 0.5 0.4 0.19741 -2.85004 3.20244e-08
730 1 0.5 0.3 0.19741 -2.85004 3.97196e-08
731 1 0.533333 0.3 0.131243 -2.8512 2.37664e-06
733 1 0.55 0.35 0.19741 -2.85003 3.57833e-08
761 1 0.533333 0.4 0.131243 -2.8512 2.34759e-06
763 1 0.583333 0.35 0.131243 -2.8512 2.34396e-06
856 1 0.6 0.3 0.19741 -2.85004 3.6225e-08
883 1 0.6 0.4 0.19741 -2.85004 4.4345e-08
884 1 0.633333 0.4 0.131243 -2.8512 2.33569e-06
885 1 0.65 0.35 0.19741 -2.85003 3.34061e-08
887 1 0.633333 0.3 0.131243 -2.8512 2.39556e-06
890 1 0.683333 0.35 0.131243 -2.8512 2.31635e-06
1007 1 0.7 0.4 0.19741 -2.85004 3.85742e-08
1010 1 0.7 0.3 0.19741 -2.85004 3.26832e-08
1011 1 0.733333 0.3 0.131243 -2.8512 2.3289e-06
1041 1 0.733333 0.4 0.131243 -2.8512 2.35306e-06
1013 1 0.75 0.35 0.19741 -2.85004 3.26774e-08
1043 1 0.783333 0.35 0.131243 -2.8512 2.39055e-06
1136 1 0.8 0.3 0.19741 -2.85004 4.07752e-08
1163 1 0.8 0.4 0.19741 -2.85004 3.51308e-08
1167 1 0.833333 0.3 0.131243 -2.8512 2.37139e-06
1164 1 0.833333 0.4 0.131243 -2.8512 2.34478e-06
1165 1 0.85 0.35 0.19741 -2.85004 3.99122e-08
1170 1 0.883333 0.35 0.131243 -2.8512 2.38642e-06
1287 1 0.9 0.4 0.19741 -2.85004 3.78515e-08
1290 1 0.9 0.3 0.19741 -2.85004 3.54128e-08
37 1 1 0.3 0.19741 -2.85004 3.42298e-08
1291 1 0.933333 0.3 0.131243 -2.8512 2.29588e-06
1293 1 0.95 0.35 0.19741 -2.85004 4.12486e-08
1316 1 0.933333 0.4 0.131243 -2.8512 2.3636e-06
1318 1 0.983333 0.35 0.131243 -2.8512 2.32298e-06
51 1 6.51706e-08 0.5 0.19741 -2.85004 3.53391e-08
57 1 0.0500001 0.45 0.19741 -2.85003 3.56829e-08
74 1 0.0499999 0.55 0.19741 -2.85004 3.36266e-08
76 1 0.0333333 0.5 0.131243 -2.8512 2.35964e-06
78 1 0.0833333 0.45 0.131243 -2.8512 2.35033e-06
79 1 0.0833332 0.55 0.131243 -2.8512 2.34382e-06
197 1 0.1 0.5 0.19741 -2.85004 3.69565e-08
198 1 0.133333 0.5 0.131243 -2.8512 2.33725e-06
199 1 0.15 0.45 0.19741 -2.85004 3.58886e-08
200 1 0.15 0.55 0.19741 -2.85004 4.02764e-08
204 1 0.183333 0.45 0.131243 -2.8512 2.34064e-06
227 1 0.183333 0.55 0.131243 -2.8512 2.39121e-06
320 1 0.2 0.5 0.19741 -2.85003 3.38314e-08
326 1 0.25 0.45 0.19741 -2.85004 3.45015e-08
352 1 0.25 0.55 0.19741 -2.85004 3.96724e-08
354 1 0.233333 0.5 0.131243 -2.8512 2.35232e-06
356 1 0.283333 0.45 0.131243 -2.8512 2.31406e-06
357 1 0.283333 0.55 0.131243 -2.8512 2.33153e-06
477 1 0.3 0.5 0.19741 -2.85004 3.42446e-08
478 1 0.333333 0.5 0.131243 -2.8512 2.3917e-06
479 1 0.35 0.45 0.197409 -2.85004 3.15856e-08
480 1 0.35 0.55 0.19741 -2.85004 4.17723e-08
484 1 0.383333 0.45 0.131243 -2.8512 2.33271e-06
507 1 0.383333 0.55 0.131243 -2.8512 2.33957e-06
600 1 0.4 0.5 0.19741 -2.85004 3.69189e-08
606 1 0.45 0.45 0.19741 -2.85004 4.057e-08
632 1 0.45 0.55 0.19741 -2.85004 3.54129e-08
634 1 0.433333 0.5 0.131243 -2.8512 2.35604e-06
636 1 0.483333 0.45 0.131243 -2.8512 2.31787e-06
637 1 0.483333 0.55 0.131243 -2.8512 2.35786e-06
757 1 0.5 0.5 0.19741 -2.85004 3.8344e-08
758 1 0.533333 0.5 0.131243 -2.8512 2.31592e-06
759 1 0.55 0.45 0.19741 -2.85004 3.77702e-08
760 1 0.55 0.55 0.19741 -2.85004 4.2877e-08
764 1 0.583333 0.45 0.131242 -2.8512 2.41079e-06
787 1 0.583333 0.55 0.131243 -2.8512 2.37405e-06
880 1 0.6 0.5 0.197409 -2.85004 3.29611e-08
886 1 0.65 0.45 0.19741 -2.85004 4.30068e-08
912 1 0.65 0.55 0.19741 -2.85004 3.91686e-08
914 1 0.633333 0.5 0.131243 -2.8512 2.29384e-06
916 1 0.683333 0.45 0.131243 -2.8512 2.34531e-06
917 1 0.683333 0.55 0.131243 -2.8512 2.35109e-06
1037 1 0.7 0.5 0.19741 -2.85004 3.46214e-08
1038 1 0.733333 0.5 0.131243 -2.8512 2.35373e-06
1039 1 0.75 0.45 0.19741 -2.85004 3.16157e-08
1040 1 0.75 0.55 0.19741 -2.85004 3.46451e-08
1044 1 0.783333 0.45 0.131243 -2.8512 2.32295e-06
1067 1 0.783333 0.55 0.131243 -2.8512 2.35241e-06
1160 1 0.8 0.5 0.19741 -2.85004 3.74205e-08
1194 1 0.833333 0.5 0.131243 -2.8512 2.34395e-06
1166 1 0.85 0.45 0.19741 -2.85004 3.80527e-08
1192 1 0.85 0.55 0.19741 -2.85004 3.50827e-08
1196 1 0.883333 0.45 0.131243 -2.8512 2.30425e-06
1197 1 0.883333 0.55 0.131243 -2.8512 2.34974e-06
1312 1 0.9 0.5 0.19741 -2.85004 3.36598e-08
1313 1 0.933333 0.5 0.131243 -2.8512 2.31912e-06
1314 1 0.95 0.45 0.19741 -2.85004 3.3995e-08
1315 1 0.95 0.55 0.19741 -2.85004 3.74983e-08