ITEM: TIMESTEP
35
ITEM: NUMBER OF ATOMS
3200
ITEM: BOX BOUNDS pp pp ss
0.0000000000000000e+00 5.0092067021360698e+01
0.0000000000000000e+00 2.8920668379047399e+01
3.8451742731260487e-02 3.5381988531723906e+01
ITEM: ATOMS id type xs ys zs c_peratom c_csym
1 1 0 0.1 0.00010093 -2.47734 24.4989
2 1 0.0166667 0.05 0.0657173 -2.83249 0.00401878
4 1 0 0 0.00010093 -2.47734 24.4989
5 1 0.05 0.05 0.00010093 -2.47734 24.4989
45 1 0.0666667 0.1 0.0657173 -2.83249 0.00401878
48 1 0.0666667 0 0.0657173 -2.83249 0.00401878
49 1 0.1 0 0.00010093 -2.47734 24.4989
50 1 0.116667 0.05 0.0657173 -2.83249 0.00401878
66 1 0.1 0.1 0.00010093 -2.47734 24.4989
67 1 0.15 0.05 0.00010093 -2.47734 24.4989
155 1 0.166667 0 0.0657173 -2.83249 0.00401878
178 1 0.166667 0.1 0.0657173 -2.83249 0.00401878
179 1 0.2 0.1 0.00010093 -2.47734 24.4989
180 1 0.216667 0.05 0.0657173 -2.83249 0.00401878
182 1 0.2 0 0.00010093 -2.47734 24.4989
183 1 0.25 0.05 0.00010093 -2.47734 24.4989
304 1 0.266667 0.1 0.0657173 -2.83249 0.00401878
307 1 0.266667 0 0.0657173 -2.83249 0.00401878
308 1 0.3 0 0.00010093 -2.47734 24.4989
309 1 0.316667 0.05 0.0657173 -2.83249 0.00401878
335 1 0.3 0.1 0.00010093 -2.47734 24.4989
336 1 0.35 0.05 0.00010093 -2.47734 24.4989
435 1 0.366667 0 0.0657173 -2.83249 0.00401878
458 1 0.366667 0.1 0.0657173 -2.83249 0.00401878
459 1 0.4 0.1 0.00010093 -2.47734 24.4989
460 1 0.416667 0.05 0.0657173 -2.83249 0.00401878
462 1 0.4 0 0.00010093 -2.47734 24.4989
463 1 0.45 0.05 0.00010093 -2.47734 24.4989
584 1 0.466667 0.1 0.0657173 -2.83249 0.00401878
587 1 0.466667 0 0.0657173 -2.83249 0.00401878
588 1 0.5 0 0.00010093 -2.47734 24.4989
615 1 0.5 0.1 0.00010093 -2.47734 24.4989
589 1 0.516667 0.05 0.0657173 -2.83249 0.00401878
616 1 0.55 0.05 0.00010093 -2.47734 24.4989
715 1 0.566667 0 0.0657173 -2.83249 0.00401878
738 1 0.566667 0.1 0.0657173 -2.83249 0.00401878
739 1 0.6 0.1 0.00010093 -2.47734 24.4989
740 1 0.616667 0.05 0.0657173 -2.83249 0.00401878
742 1 0.6 0 0.00010093 -2.47734 24.4989
743 1 0.65 0.05 0.00010093 -2.47734 24.4989
864 1 0.666667 0.1 0.0657173 -2.83249 0.00401878
867 1 0.666667 0 0.0657173 -2.83249 0.00401878
868 1 0.7 0 0.00010093 -2.47734 24.4989
869 1 0.716667 0.05 0.0657173 -2.83249 0.00401878
895 1 0.7 0.1 0.00010093 -2.47734 24.4989
896 1 0.75 0.05 0.00010093 -2.47734 24.4989
995 1 0.766667 0 0.0657173 -2.83249 0.00401878
1018 1 0.766667 0.1 0.0657173 -2.83249 0.00401878
1019 1 0.8 0.1 0.00010093 -2.47734 24.4989
1020 1 0.816667 0.05 0.0657173 -2.83249 0.00401878
1022 1 0.8 0 0.00010093 -2.47734 24.4989
1023 1 0.85 0.05 0.00010093 -2.47734 24.4989
1144 1 0.866667 0.1 0.0657173 -2.83249 0.00401878
1147 1 0.866667 0 0.0657173 -2.83249 0.00401878
1148 1 0.9 0 0.00010093 -2.47734 24.4989
1149 1 0.916667 0.05 0.0657173 -2.83249 0.00401878
1175 1 0.9 0.1 0.00010093 -2.47734 24.4989
1176 1 0.95 0.05 0.00010093 -2.47734 24.4989
1275 1 0.966667 0 0.0657173 -2.83249 0.00401878
1298 1 0.966667 0.1 0.0657173 -2.83249 0.00401878
3 1 0.0166667 0.15 0.0657173 -2.83249 0.00401878
7 1 0.0166667 0.25 0.0657173 -2.83249 0.00401878
9 1 0 0.2 0.00010093 -2.47734 24.4989
10 1 0.05 0.15 0.00010093 -2.47734 24.4989
11 1 0.05 0.25 0.00010093 -2.47734 24.4989
62 1 0.0666667 0.2 0.0657173 -2.83249 0.00401878
63 1 0.1 0.2 0.00010093 -2.47734 24.4989
64 1 0.116667 0.15 0.0657173 -2.83249 0.00401878
65 1 0.116667 0.25 0.0657173 -2.83249 0.00401878
68 1 0.15 0.15 0.00010093 -2.47734 24.4989
85 1 0.15 0.25 0.00010093 -2.47734 24.4989
175 1 0.166667 0.2 0.0657173 -2.83249 0.00401878
181 1 0.216667 0.15 0.0657173 -2.83249 0.00401878
207 1 0.216667 0.25 0.0657173 -2.83249 0.00401878
209 1 0.2 0.2 0.00010093 -2.47734 24.4989
210 1 0.25 0.15 0.00010093 -2.47734 24.4989
211 1 0.25 0.25 0.00010093 -2.47734 24.4989
331 1 0.266667 0.2 0.0657173 -2.83249 0.00401878
332 1 0.3 0.2 0.00010093 -2.47734 24.4989
333 1 0.316667 0.15 0.0657173 -2.83249 0.00401878
334 1 0.316667 0.25 0.0657173 -2.83249 0.00401878
337 1 0.35 0.15 0.00010093 -2.47734 24.4989
363 1 0.35 0.25 0.00010093 -2.47734 24.4989
455 1 0.366667 0.2 0.0657173 -2.83249 0.00401878
461 1 0.416667 0.15 0.0657173 -2.83249 0.00401878
487 1 0.416667 0.25 0.0657173 -2.83249 0.00401878
489 1 0.4 0.2 0.00010093 -2.47734 24.4989
490 1 0.45 0.15 0.00010093 -2.47734 24.4989
491 1 0.45 0.25 0.00010093 -2.47734 24.4989
611 1 0.466667 0.2 0.0657173 -2.83249 0.00401878
612 1 0.5 0.2 0.00010093 -2.47734 24.4989
613 1 0.516667 0.15 0.0657173 -2.83249 0.00401878
614 1 0.516667 0.25 0.0657173 -2.83249 0.00401878
617 1 0.55 0.15 0.00010093 -2.47734 24.4989
643 1 0.55 0.25 0.00010093 -2.47734 24.4989
735 1 0.566667 0.2 0.0657173 -2.83249 0.00401878
741 1 0.616667 0.15 0.0657173 -2.83249 0.00401878
767 1 0.616667 0.25 0.0657173 -2.83249 0.00401878
769 1 0.6 0.2 0.00010093 -2.47734 24.4989
770 1 0.65 0.15 0.00010093 -2.47734 24.4989
771 1 0.65 0.25 0.00010093 -2.47734 24.4989
891 1 0.666667 0.2 0.0657173 -2.83249 0.00401878
892 1 0.7 0.2 0.00010093 -2.47734 24.4989
893 1 0.716667 0.15 0.0657173 -2.83249 0.00401878
894 1 0.716667 0.25 0.0657173 -2.83249 0.00401878
897 1 0.75 0.15 0.00010093 -2.47734 24.4989
923 1 0.75 0.25 0.00010093 -2.47734 24.4989
1015 1 0.766667 0.2 0.0657173 -2.83249 0.00401878
1021 1 0.816667 0.15 0.0657173 -2.83249 0.00401878
1047 1 0.816667 0.25 0.0657173 -2.83249 0.00401878
1049 1 0.8 0.2 0.00010093 -2.47734 24.4989
1050 1 0.85 0.15 0.00010093 -2.47734 24.4989
1051 1 0.85 0.25 0.00010093 -2.47734 24.4989
1171 1 0.866667 0.2 0.0657173 -2.83249 0.00401878
1172 1 0.9 0.2 0.00010093 -2.47734 24.4989
1173 1 0.916667 0.15 0.0657173 -2.83249 0.00401878
1174 1 0.916667 0.25 0.0657173 -2.83249 0.00401878
1177 1 0.95 0.15 0.00010093 -2.47734 24.4989
1203 1 0.95 0.25 0.00010093 -2.47734 24.4989
1295 1 0.966667 0.2 0.0657173 -2.83249 0.00401878
6 1 0 0.3 0.00010093 -2.47734 24.4989
8 1 0.0166667 0.35 0.0657173 -2.83249 0.00401878
15 1 0 0.4 0.00010093 -2.47734 24.4989
16 1 0.05 0.35 0.00010093 -2.47734 24.4989
59 1 0.0666667 0.3 0.0657173 -2.83249 0.00401878
80 1 0.0666667 0.4 0.0657173 -2.83249 0.00401878
81 1 0.1 0.4 0.00010093 -2.47734 24.4989
82 1 0.116667 0.35 0.0657173 -2.83249 0.00401878
84 1 0.1 0.3 0.00010093 -2.47734 24.4989
86 1 0.15 0.35 0.00010093 -2.47734 24.4989
202 1 0.166667 0.4 0.0657173 -2.83249 0.00401878
205 1 0.166667 0.3 0.0657173 -2.83249 0.00401878
206 1 0.2 0.3 0.00010093 -2.47734 24.4989
208 1 0.216667 0.35 0.0657173 -2.83249 0.00401878
233 1 0.2 0.4 0.00010093 -2.47734 24.4989
234 1 0.25 0.35 0.00010093 -2.47734 24.4989
328 1 0.266667 0.3 0.0657173 -2.83249 0.00401878
358 1 0.266667 0.4 0.0657173 -2.83249 0.00401878
359 1 0.3 0.4 0.00010093 -2.47734 24.4989
360 1 0.316667 0.35 0.0657173 -2.83249 0.00401878
362 1 0.3 0.3 0.00010093 -2.47734 24.4989
364 1 0.35 0.35 0.00010093 -2.47734 24.4989
482 1 0.366667 0.4 0.0657173 -2.83249 0.00401878
485 1 0.366667 0.3 0.0657173 -2.83249 0.00401878
486 1 0.4 0.3 0.00010093 -2.47734 24.4989
488 1 0.416667 0.35 0.0657173 -2.83249 0.00401878
513 1 0.4 0.4 0.00010093 -2.47734 24.4989
514 1 0.45 0.35 0.00010093 -2.47734 24.4989
608 1 0.466667 0.3 0.0657173 -2.83249 0.00401878
638 1 0.466667 0.4 0.0657173 -2.83249 0.00401878
639 1 0.5 0.4 0.00010093 -2.47734 24.4989
642 1 0.5 0.3 0.00010093 -2.47734 24.4989
640 1 0.516667 0.35 0.0657173 -2.83249 0.00401878
644 1 0.55 0.35 0.00010093 -2.47734 24.4989
762 1 0.566667 0.4 0.0657173 -2.83249 0.00401878
765 1 0.566667 0.3 0.0657173 -2.83249 0.00401878
766 1 0.6 0.3 0.00010093 -2.47734 24.4989
768 1 0.616667 0.35 0.0657173 -2.83249 0.00401878
793 1 0.6 0.4 0.00010093 -2.47734 24.4989
794 1 0.65 0.35 0.00010093 -2.47734 24.4989
888 1 0.666667 0.3 0.0657173 -2.83249 0.00401878
918 1 0.666667 0.4 0.0657173 -2.83249 0.00401878
919 1 0.7 0.4 0.00010093 -2.47734 24.4989
920 1 0.716667 0.35 0.0657173 -2.83249 0.00401878
922 1 0.7 0.3 0.00010093 -2.47734 24.4989
924 1 0.75 0.35 0.00010093 -2.47734 24.4989
1042 1 0.766667 0.4 0.0657173 -2.83249 0.00401878
1045 1 0.766667 0.3 0.0657173 -2.83249 0.00401878
1046 1 0.8 0.3 0.00010093 -2.47734 24.4989
1048 1 0.816667 0.35 0.0657173 -2.83249 0.00401878
1073 1 0.8 0.4 0.00010093 -2.47734 24.4989
1074 1 0.85 0.35 0.00010093 -2.47734 24.4989
1168 1 0.866667 0.3 0.0657173 -2.83249 0.00401878
1198 1 0.866667 0.4 0.0657173 -2.83249 0.00401878
1199 1 0.9 0.4 0.00010093 -2.47734 24.4989
1200 1 0.916667 0.35 0.0657173 -2.83249 0.00401878
1202 1 0.9 0.3 0.00010093 -2.47734 24.4989
1204 1 0.95 0.35 0.00010093 -2.47734 24.4989
1317 1 0.966667 0.4 0.0657173 -2.83249 0.00401878
1320 1 0.966667 0.3 0.0657173 -2.83249 0.00401878
12 1 0 0.5 0.00010093 -2.47734 24.4989
13 1 0.0166667 0.45 0.0657173 -2.83249 0.00401878
14 1 0.0166667 0.55 0.0657173 -2.83249 0.00401878
17 1 0.05 0.45 0.00010093 -2.47734 24.4989
22 1 0.05 0.55 0.00010093 -2.47734 24.4989
77 1 0.0666667 0.5 0.0657173 -2.83249 0.00401878
83 1 0.116667 0.45 0.0657173 -2.83249 0.00401878
100 1 0.116667 0.55 0.0657173 -2.83249 0.00401878
102 1 0.1 0.5 0.00010093 -2.47734 24.4989
103 1 0.15 0.45 0.00010093 -2.47734 24.4989
104 1 0.15 0.55 0.00010093 -2.47734 24.4989
229 1 0.166667 0.5 0.0657173 -2.83249 0.00401878
230 1 0.2 0.5 0.00010093 -2.47734 24.4989
231 1 0.216667 0.45 0.0657173 -2.83249 0.00401878
232 1 0.216667 0.55 0.0657173 -2.83249 0.00401878
235 1 0.25 0.45 0.00010093 -2.47734 24.4989
250 1 0.25 0.55 0.00010093 -2.47734 24.4989
355 1 0.266667 0.5 0.0657173 -2.83249 0.00401878
361 1 0.316667 0.45 0.0657173 -2.83249 0.00401878
380 1 0.316667 0.55 0.0657173 -2.83249 0.00401878
382 1 0.3 0.5 0.00010093 -2.47734 24.4989
383 1 0.35 0.45 0.00010093 -2.47734 24.4989
384 1 0.35 0.55 0.00010093 -2.47734 24.4989
509 1 0.366667 0.5 0.0657173 -2.83249 0.00401878
510 1 0.4 0.5 0.00010093 -2.47734 24.4989
511 1 0.416667 0.45 0.0657173 -2.83249 0.00401878
512 1 0.416667 0.55 0.0657173 -2.83249 0.00401878
515 1 0.45 0.45 0.00010093 -2.47734 24.4989
530 1 0.45 0.55 0.00010093 -2.47734 24.4989
635 1 0.466667 0.5 0.0657173 -2.83249 0.00401878
662 1 0.5 0.5 0.00010093 -2.47734 24.4989
641 1 0.516667 0.45 0.0657173 -2.83249 0.00401878
660 1 0.516667 0.55 0.0657173 -2.83249 0.00401878
663 1 0.55 0.45 0.00010093 -2.47734 24.4989
664 1 0.55 0.55 0.00010093 -2.47734 24.4989
789 1 0.566667 0.5 0.0657173 -2.83249 0.00401878
790 1 0.6 0.5 0.00010093 -2.47734 24.4989
791 1 0.616667 0.45 0.0657173 -2.83249 0.00401878
792 1 0.616667 0.55 0.0657173 -2.83249 0.00401878
795 1 0.65 0.45 0.00010093 -2.47734 24.4989
810 1 0.65 0.55 0.00010093 -2.47734 24.4989
915 1 0.666667 0.5 0.0657173 -2.83249 0.00401878
921 1 0.716667 0.45 0.0657173 -2.83249 0.00401878
940 1 0.716667 0.55 0.0657173 -2.83249 0.00401878
942 1 0.7 0.5 0.00010093 -2.47734 24.4989
943 1 0.75 0.45 0.00010093 -2.47734 24.4989
944 1 0.75 0.55 0.00010093 -2.47734 24.4989
1069 1 0.766667 0.5 0.0657173 -2.83249 0.00401878
1070 1 0.8 0.5 0.00010093 -2.47734 24.4989
1071 1 0.816667 0.45 0.0657173 -2.83249 0.00401878
1072 1 0.816667 0.55 0.0657173 -2.83249 0.00401878
1075 1 0.85 0.45 0.00010093 -2.47734 24.4989
1090 1 0.85 0.55 0.00010093 -2.47734 24.4989
1195 1 0.866667 0.5 0.0657173 -2.83249 0.00401878
1201 1 0.916667 0.45 0.0657173 -2.83249 0.00401878
1220 1 0.916667 0.55 0.0657173 -2.83249 0.00401878
1222 1 0.9 0.5 0.00010093 -2.47734 24.4989
1223 1 0.95 0.45 0.00010093 -2.47734 24.4989
1224 1 0.95 0.55 0.00010093 -2.47734 24.4989
1338 1 0.966667 0.5 0.0657173 -2.83249 0.00401878
18 1 0 0.7 0.00010093 -2.47734 24.4989
19 1 0.0166667 0.65 0.0657173 -2.83249 0.00401878
21 1 0 0.6 0.00010093 -2.47734 24.4989
23 1 0.05 0.65 0.00010093 -2.47734 24.4989
95 1 0.0666667 0.7 0.0657173 -2.83249 0.00401878
98 1 0.0666667 0.6 0.0657173 -2.83249 0.00401878
99 1 0.1 0.6 0.00010093 -2.47734 24.4989
101 1 0.116667 0.65 0.0657173 -2.83249 0.00401878
114 1 0.1 0.7 0.00010093 -2.47734 24.4989
115 1 0.15 0.65 0.00010093 -2.47734 24.4989
226 1 0.166667 0.6 0.0657173 -2.83249 0.00401878
245 1 0.166667 0.7 0.0657173 -2.83249 0.00401878
246 1 0.2 0.7 0.00010093 -2.47734 24.4989
247 1 0.216667 0.65 0.0657173 -2.83249 0.00401878
249 1 0.2 0.6 0.00010093 -2.47734 24.4989
251 1 0.25 0.65 0.00010093 -2.47734 24.4989
375 1 0.266667 0.7 0.0657173 -2.83249 0.00401878
378 1 0.266667 0.6 0.0657173 -2.83249 0.00401878
379 1 0.3 0.6 0.00010093 -2.47734 24.4989
381 1 0.316667 0.65 0.0657173 -2.83249 0.00401878
394 1 0.3 0.7 0.00010093 -2.47734 24.4989
395 1 0.35 0.65 0.00010093 -2.47734 24.4989
506 1 0.366667 0.6 0.0657173 -2.83249 0.00401878
525 1 0.366667 0.7 0.0657173 -2.83249 0.00401878
526 1 0.4 0.7 0.00010093 -2.47734 24.4989
527 1 0.416667 0.65 0.0657173 -2.83249 0.00401878
529 1 0.4 0.6 0.00010093 -2.47734 24.4989
531 1 0.45 0.65 0.00010093 -2.47734 24.4989
655 1 0.466667 0.7 0.0657173 -2.83249 0.00401878
658 1 0.466667 0.6 0.0657173 -2.83249 0.00401878
659 1 0.5 0.6 0.00010093 -2.47734 24.4989
674 1 0.5 0.7 0.00010093 -2.47734 24.4989
661 1 0.516667 0.65 0.0657173 -2.83249 0.00401878
675 1 0.55 0.65 0.00010093 -2.47734 24.4989
786 1 0.566667 0.6 0.0657173 -2.83249 0.00401878
805 1 0.566667 0.7 0.0657173 -2.83249 0.00401878
806 1 0.6 0.7 0.00010093 -2.47734 24.4989
807 1 0.616667 0.65 0.0657173 -2.83249 0.00401878
809 1 0.6 0.6 0.00010093 -2.47734 24.4989
811 1 0.65 0.65 0.00010093 -2.47734 24.4989
935 1 0.666667 0.7 0.0657173 -2.83249 0.00401878
938 1 0.666667 0.6 0.0657173 -2.83249 0.00401878
939 1 0.7 0.6 0.00010093 -2.47734 24.4989
941 1 0.716667 0.65 0.0657173 -2.83249 0.00401878
954 1 0.7 0.7 0.00010093 -2.47734 24.4989
955 1 0.75 0.65 0.00010093 -2.47734 24.4989
1066 1 0.766667 0.6 0.0657173 -2.83249 0.00401878
1085 1 0.766667 0.7 0.0657173 -2.83249 0.00401878
1086 1 0.8 0.7 0.00010093 -2.47734 24.4989
1087 1 0.816667 0.65 0.0657173 -2.83249 0.00401878
1089 1 0.8 0.6 0.00010093 -2.47734 24.4989
1091 1 0.85 0.65 0.00010093 -2.47734 24.4989
1215 1 0.866667 0.7 0.0657173 -2.83249 0.00401878
1218 1 0.866667 0.6 0.0657173 -2.83249 0.00401878
1219 1 0.9 0.6 0.00010093 -2.47734 24.4989
1221 1 0.916667 0.65 0.0657173 -2.83249 0.00401878
1234 1 0.9 0.7 0.00010093 -2.47734 24.4989
1235 1 0.95 0.65 0.00010093 -2.47734 24.4989
1335 1 0.966667 0.6 0.0657173 -2.83249 0.00401878
1348 1 0.966667 0.7 0.0657173 -2.83249 0.00401878
20 1 0.0166667 0.75 0.0657173 -2.83249 0.00401878
25 1 0.0166667 0.85 0.0657173 -2.83249 0.00401878
27 1 0 0.8 0.00010093 -2.47734 24.4989
28 1 0.05 0.75 0.00010093 -2.47734 24.4989
29 1 0.05 0.85 0.00010093 -2.47734 24.4989
110 1 0.0666667 0.8 0.0657173 -2.83249 0.00401878
111 1 0.1 0.8 0.00010093 -2.47734 24.4989
112 1 0.116667 0.75 0.0657173 -2.83249 0.00401878
113 1 0.116667 0.85 0.0657173 -2.83249 0.00401878
116 1 0.15 0.75 0.00010093 -2.47734 24.4989
119 1 0.15 0.85 0.00010093 -2.47734 24.4989
242 1 0.166667 0.8 0.0657173 -2.83249 0.00401878
248 1 0.216667 0.75 0.0657173 -2.83249 0.00401878
255 1 0.216667 0.85 0.0657173 -2.83249 0.00401878
257 1 0.2 0.8 0.00010093 -2.47734 24.4989
258 1 0.25 0.75 0.00010093 -2.47734 24.4989
259 1 0.25 0.85 0.00010093 -2.47734 24.4989
390 1 0.266667 0.8 0.0657173 -2.83249 0.00401878
391 1 0.3 0.8 0.00010093 -2.47734 24.4989
392 1 0.316667 0.75 0.0657173 -2.83249 0.00401878
393 1 0.316667 0.85 0.0657173 -2.83249 0.00401878
396 1 0.35 0.75 0.00010093 -2.47734 24.4989
399 1 0.35 0.85 0.00010093 -2.47734 24.4989
522 1 0.366667 0.8 0.0657173 -2.83249 0.00401878
528 1 0.416667 0.75 0.0657173 -2.83249 0.00401878
535 1 0.416667 0.85 0.0657173 -2.83249 0.00401878
537 1 0.4 0.8 0.00010093 -2.47734 24.4989
538 1 0.45 0.75 0.00010093 -2.47734 24.4989
539 1 0.45 0.85 0.00010093 -2.47734 24.4989
670 1 0.466667 0.8 0.0657173 -2.83249 0.00401878
671 1 0.5 0.8 0.00010093 -2.47734 24.4989
672 1 0.516667 0.75 0.0657173 -2.83249 0.00401878
673 1 0.516667 0.85 0.0657173 -2.83249 0.00401878
676 1 0.55 0.75 0.00010093 -2.47734 24.4989
679 1 0.55 0.85 0.00010093 -2.47734 24.4989
802 1 0.566667 0.8 0.0657173 -2.83249 0.00401878
808 1 0.616667 0.75 0.0657173 -2.83249 0.00401878
815 1 0.616667 0.85 0.0657173 -2.83249 0.00401878
817 1 0.6 0.8 0.00010093 -2.47734 24.4989
818 1 0.65 0.75 0.00010093 -2.47734 24.4989
819 1 0.65 0.85 0.00010093 -2.47734 24.4989
950 1 0.666667 0.8 0.0657173 -2.83249 0.00401878
951 1 0.7 0.8 0.00010093 -2.47734 24.4989
952 1 0.716667 0.75 0.0657173 -2.83249 0.00401878
953 1 0.716667 0.85 0.0657173 -2.83249 0.00401878
956 1 0.75 0.75 0.00010093 -2.47734 24.4989
959 1 0.75 0.85 0.00010093 -2.47734 24.4989
1082 1 0.766667 0.8 0.0657173 -2.83249 0.00401878
1088 1 0.816667 0.75 0.0657173 -2.83249 0.00401878
1095 1 0.816667 0.85 0.0657173 -2.83249 0.00401878
1097 1 0.8 0.8 0.00010093 -2.47734 24.4989
1098 1 0.85 0.75 0.00010093 -2.47734 24.4989
1099 1 0.85 0.85 0.00010093 -2.47734 24.4989
1230 1 0.866667 0.8 0.0657173 -2.83249 0.00401878
1231 1 0.9 0.8 0.00010093 -2.47734 24.4989
1232 1 0.916667 0.75 0.0657173 -2.83249 0.00401878
1233 1 0.916667 0.85 0.0657173 -2.83249 0.00401878
1236 1 0.95 0.75 0.00010093 -2.47734 24.4989
1239 1 0.95 0.85 0.00010093 -2.47734 24.4989
1345 1 0.966667 0.8 0.0657173 -2.83249 0.00401878
24 1 0 0.9 0.00010093 -2.47734 24.4989
26 1 0.0166667 0.95 0.0657173 -2.83249 0.00401878
30 1 0.05 0.95 0.00010093 -2.47734 24.4989
107 1 0.0666667 0.9 0.0657173 -2.83249 0.00401878
117 1 0.116667 0.95 0.0657173 -2.83249 0.00401878
118 1 0.1 0.9 0.00010093 -2.47734 24.4989
120 1 0.15 0.95 0.00010093 -2.47734 24.4989
253 1 0.166667 0.9 0.0657173 -2.83249 0.00401878
254 1 0.2 0.9 0.00010093 -2.47734 24.4989
256 1 0.216667 0.95 0.0657173 -2.83249 0.00401878
260 1 0.25 0.95 0.00010093 -2.47734 24.4989
387 1 0.266667 0.9 0.0657173 -2.83249 0.00401878
397 1 0.316667 0.95 0.0657173 -2.83249 0.00401878
398 1 0.3 0.9 0.00010093 -2.47734 24.4989
400 1 0.35 0.95 0.00010093 -2.47734 24.4989
533 1 0.366667 0.9 0.0657173 -2.83249 0.00401878
534 1 0.4 0.9 0.00010093 -2.47734 24.4989
536 1 0.416667 0.95 0.0657173 -2.83249 0.00401878
540 1 0.45 0.95 0.00010093 -2.47734 24.4989
667 1 0.466667 0.9 0.0657173 -2.83249 0.00401878
678 1 0.5 0.9 0.00010093 -2.47734 24.4989
677 1 0.516667 0.95 0.0657173 -2.83249 0.00401878
680 1 0.55 0.95 0.00010093 -2.47734 24.4989
813 1 0.566667 0.9 0.0657173 -2.83249 0.00401878
814 1 0.6 0.9 0.00010093 -2.47734 24.4989
816 1 0.616667 0.95 0.0657173 -2.83249 0.00401878
820 1 0.65 0.95 0.00010093 -2.47734 24.4989
947 1 0.666667 0.9 0.0657173 -2.83249 0.00401878
957 1 0.716667 0.95 0.0657173 -2.83249 0.00401878
958 1 0.7 0.9 0.00010093 -2.47734 24.4989
960 1 0.75 0.95 0.00010093 -2.47734 24.4989
1093 1 0.766667 0.9 0.0657173 -2.83249 0.00401878
1094 1 0.8 0.9 0.00010093 -2.47734 24.4989
1096 1 0.816667 0.95 0.0657173 -2.83249 0.00401878
1100 1 0.85 0.95 0.00010093 -2.47734 24.4989
1227 1 0.866667 0.9 0.0657173 -2.83249 0.00401878
1237 1 0.916667 0.95 0.0657173 -2.83249 0.00401878
1238 1 0.9 0.9 0.00010093 -2.47734 24.4989
1240 1 0.95 0.95 0.00010093 -2.47734 24.4989
1350 1 0.966667 0.9 0.0657173 -2.83249 0.00401878
31 1 0 0.1 0.198311 -2.84652 0.000437742
34 1 0 0 0.198311 -2.84652 0.000437742
35 1 0.0333333 0 0.132369 -2.85074 0.00188752
36 1 0.05 0.05 0.198311 -2.84652 0.000437742
44 1 0.0333333 0.1 0.132369 -2.85074 0.00188752
46 1 0.0833333 0.05 0.132369 -2.85074 0.00188752
135 1 0.1 0 0.198311 -2.84652 0.000437742
150 1 0.1 0.1 0.198311 -2.84652 0.000437742
151 1 0.133333 0.1 0.132369 -2.85074 0.00188752
152 1 0.15 0.05 0.198311 -2.84652 0.000437742
154 1 0.133333 0 0.132369 -2.85074 0.00188752
156 1 0.183333 0.05 0.132369 -2.85074 0.00188752
280 1 0.2 0.1 0.198311 -2.84652 0.000437742
283 1 0.2 0 0.198311 -2.84652 0.000437742
284 1 0.233333 0 0.132369 -2.85074 0.00188752
285 1 0.25 0.05 0.198311 -2.84652 0.000437742
303 1 0.233333 0.1 0.132369 -2.85074 0.00188752
305 1 0.283333 0.05 0.132369 -2.85074 0.00188752
415 1 0.3 0 0.198311 -2.84652 0.000437742
430 1 0.3 0.1 0.198311 -2.84652 0.000437742
431 1 0.333333 0.1 0.132369 -2.85074 0.00188752
434 1 0.333333 0 0.132369 -2.85074 0.00188752
432 1 0.35 0.05 0.198311 -2.84652 0.000437742
436 1 0.383333 0.05 0.132369 -2.85074 0.00188752
560 1 0.4 0.1 0.198311 -2.84652 0.000437742
563 1 0.4 0 0.198311 -2.84652 0.000437742
564 1 0.433333 0 0.132369 -2.85074 0.00188752
565 1 0.45 0.05 0.198311 -2.84652 0.000437742
583 1 0.433333 0.1 0.132369 -2.85074 0.00188752
585 1 0.483333 0.05 0.132369 -2.85074 0.00188752
695 1 0.5 0 0.198311 -2.84652 0.000437742
710 1 0.5 0.1 0.198311 -2.84652 0.000437742
711 1 0.533333 0.1 0.132369 -2.85074 0.00188752
712 1 0.55 0.05 0.198311 -2.84652 0.000437742
714 1 0.533333 0 0.132369 -2.85074 0.00188752
716 1 0.583333 0.05 0.132369 -2.85074 0.00188752
840 1 0.6 0.1 0.198311 -2.84652 0.000437742
843 1 0.6 0 0.198311 -2.84652 0.000437742
844 1 0.633333 0 0.132369 -2.85074 0.00188752
845 1 0.65 0.05 0.198311 -2.84652 0.000437742
863 1 0.633333 0.1 0.132369 -2.85074 0.00188752
865 1 0.683333 0.05 0.132369 -2.85074 0.00188752
975 1 0.7 0 0.198311 -2.84652 0.000437742
990 1 0.7 0.1 0.198311 -2.84652 0.000437742
991 1 0.733333 0.1 0.132369 -2.85074 0.00188752
992 1 0.75 0.05 0.198311 -2.84652 0.000437742
994 1 0.733333 0 0.132369 -2.85074 0.00188752
996 1 0.783333 0.05 0.132369 -2.85074 0.00188752
1120 1 0.8 0.1 0.198311 -2.84652 0.000437742
1123 1 0.8 0 0.198311 -2.84652 0.000437742
1124 1 0.833333 0 0.132369 -2.85074 0.00188752
1143 1 0.833333 0.1 0.132369 -2.85074 0.00188752
1125 1 0.85 0.05 0.198311 -2.84652 0.000437742
1145 1 0.883333 0.05 0.132369 -2.85074 0.00188752
1255 1 0.9 0 0.198311 -2.84652 0.000437742
1270 1 0.9 0.1 0.198311 -2.84652 0.000437742
1271 1 0.933333 0.1 0.132369 -2.85074 0.00188752
1272 1 0.95 0.05 0.198311 -2.84652 0.000437742
1274 1 0.933333 0 0.132369 -2.85074 0.00188752
1276 1 0.983333 0.05 0.132369 -2.85074 0.00188752
40 1 0 0.2 0.198311 -2.84652 0.000437742
41 1 0.0333333 0.2 0.132369 -2.85074 0.00188752
42 1 0.05 0.15 0.198311 -2.84652 0.000437742
43 1 0.05 0.25 0.198311 -2.84652 0.000437742
47 1 0.0833333 0.15 0.132369 -2.85074 0.00188752
60 1 0.0833333 0.25 0.132369 -2.85074 0.00188752
147 1 0.1 0.2 0.198311 -2.84652 0.000437742
153 1 0.15 0.15 0.198311 -2.84652 0.000437742
172 1 0.15 0.25 0.198311 -2.84652 0.000437742
174 1 0.133333 0.2 0.132369 -2.85074 0.00188752
176 1 0.183333 0.15 0.132369 -2.85074 0.00188752
177 1 0.183333 0.25 0.132369 -2.85074 0.00188752
299 1 0.2 0.2 0.198311 -2.84652 0.000437742
300 1 0.233333 0.2 0.132369 -2.85074 0.00188752
301 1 0.25 0.15 0.198311 -2.84652 0.000437742
302 1 0.25 0.25 0.198311 -2.84652 0.000437742
306 1 0.283333 0.15 0.132369 -2.85074 0.00188752
329 1 0.283333 0.25 0.132369 -2.85074 0.00188752
427 1 0.3 0.2 0.198311 -2.84652 0.000437742
454 1 0.333333 0.2 0.132369 -2.85074 0.00188752
433 1 0.35 0.15 0.198311 -2.84652 0.000437742
452 1 0.35 0.25 0.198311 -2.84652 0.000437742
456 1 0.383333 0.15 0.132369 -2.85074 0.00188752
457 1 0.383333 0.25 0.132369 -2.85074 0.00188752
579 1 0.4 0.2 0.198311 -2.84652 0.000437742
580 1 0.433333 0.2 0.132369 -2.85074 0.00188752
581 1 0.45 0.15 0.198311 -2.84652 0.000437742
582 1 0.45 0.25 0.198311 -2.84652 0.000437742
586 1 0.483333 0.15 0.132369 -2.85074 0.00188752
609 1 0.483333 0.25 0.132369 -2.85074 0.00188752
707 1 0.5 0.2 0.198311 -2.84652 0.000437742
713 1 0.55 0.15 0.198311 -2.84652 0.000437742
732 1 0.55 0.25 0.198311 -2.84652 0.000437742
734 1 0.533333 0.2 0.132369 -2.85074 0.00188752
736 1 0.583333 0.15 0.132369 -2.85074 0.00188752
737 1 0.583333 0.25 0.132369 -2.85074 0.00188752
859 1 0.6 0.2 0.198311 -2.84652 0.000437742
860 1 0.633333 0.2 0.132369 -2.85074 0.00188752
861 1 0.65 0.15 0.198311 -2.84652 0.000437742
862 1 0.65 0.25 0.198311 -2.84652 0.000437742
866 1 0.683333 0.15 0.132369 -2.85074 0.00188752
889 1 0.683333 0.25 0.132369 -2.85074 0.00188752
987 1 0.7 0.2 0.198311 -2.84652 0.000437742
993 1 0.75 0.15 0.198311 -2.84652 0.000437742
1012 1 0.75 0.25 0.198311 -2.84652 0.000437742
1014 1 0.733333 0.2 0.132369 -2.85074 0.00188752
1016 1 0.783333 0.15 0.132369 -2.85074 0.00188752
1017 1 0.783333 0.25 0.132369 -2.85074 0.00188752
1139 1 0.8 0.2 0.198311 -2.84652 0.000437742
1140 1 0.833333 0.2 0.132369 -2.85074 0.00188752
1141 1 0.85 0.15 0.198311 -2.84652 0.000437742
1142 1 0.85 0.25 0.198311 -2.84652 0.000437742
1146 1 0.883333 0.15 0.132369 -2.85074 0.00188752
1169 1 0.883333 0.25 0.132369 -2.85074 0.00188752
1267 1 0.9 0.2 0.198311 -2.84652 0.000437742
1273 1 0.95 0.15 0.198311 -2.84652 0.000437742
1292 1 0.95 0.25 0.198311 -2.84652 0.000437742
1294 1 0.933333 0.2 0.132369 -2.85074 0.00188752
1296 1 0.983333 0.15 0.132369 -2.85074 0.00188752
1297 1 0.983333 0.25 0.132369 -2.85074 0.00188752
37 1 0 0.3 0.198311 -2.84652 0.000437742
54 1 8.86546e-18 0.4 0.198311 -2.84652 0.000437742
55 1 0.0333333 0.4 0.132369 -2.85074 0.00188752
56 1 0.05 0.35 0.198311 -2.84652 0.000437742
58 1 0.0333333 0.3 0.132369 -2.85074 0.00188752
61 1 0.0833333 0.35 0.132369 -2.85074 0.00188752
167 1 0.1 0.4 0.198311 -2.84652 0.000437742
170 1 0.1 0.3 0.198311 -2.84652 0.000437742
171 1 0.133333 0.3 0.132369 -2.85074 0.00188752
173 1 0.15 0.35 0.198311 -2.84652 0.000437742
201 1 0.133333 0.4 0.132369 -2.85074 0.00188752
203 1 0.183333 0.35 0.132369 -2.85074 0.00188752
296 1 0.2 0.3 0.198311 -2.84652 0.000437742
323 1 0.2 0.4 0.198311 -2.84652 0.000437742
324 1 0.233333 0.4 0.132369 -2.85074 0.00188752
325 1 0.25 0.35 0.198311 -2.84652 0.000437742
327 1 0.233333 0.3 0.132369 -2.85074 0.00188752
330 1 0.283333 0.35 0.132369 -2.85074 0.00188752
447 1 0.3 0.4 0.198311 -2.84652 0.000437742
450 1 0.3 0.3 0.198311 -2.84652 0.000437742
451 1 0.333333 0.3 0.132369 -2.85074 0.00188752
481 1 0.333333 0.4 0.132369 -2.85074 0.00188752
453 1 0.35 0.35 0.198311 -2.84652 0.000437742
483 1 0.383333 0.35 0.132369 -2.85074 0.00188752
576 1 0.4 0.3 0.198311 -2.84652 0.000437742
603 1 0.4 0.4 0.198311 -2.84652 0.000437742
604 1 0.433333 0.4 0.132369 -2.85074 0.00188752
605 1 0.45 0.35 0.198311 -2.84652 0.000437742
607 1 0.433333 0.3 0.132369 -2.85074 0.00188752
610 1 0.483333 0.35 0.132369 -2.85074 0.00188752
727 1 0.5 0.4 0.198311 -2.84652 0.000437742
730 1 0.5 0.3 0.198311 -2.84652 0.000437742
731 1 0.533333 0.3 0.132369 -2.85074 0.00188752
733 1 0.55 0.35 0.198311 -2.84652 0.000437742
761 1 0.533333 0.4 0.132369 -2.85074 0.00188752
763 1 0.583333 0.35 0.132369 -2.85074 0.00188752
856 1 0.6 0.3 0.198311 -2.84652 0.000437742
883 1 0.6 0.4 0.198311 -2.84652 0.000437742
884 1 0.633333 0.4 0.132369 -2.85074 0.00188752
885 1 0.65 0.35 0.198311 -2.84652 0.000437742
887 1 0.633333 0.3 0.132369 -2.85074 0.00188752
890 1 0.683333 0.35 0.132369 -2.85074 0.00188752
1007 1 0.7 0.4 0.198311 -2.84652 0.000437742
1010 1 0.7 0.3 0.198311 -2.84652 0.000437742
1011 1 0.733333 0.3 0.132369 -2.85074 0.00188752
1013 1 0.75 0.35 0.198311 -2.84652 0.000437742
1041 1 0.733333 0.4 0.132369 -2.85074 0.00188752
1043 1 0.783333 0.35 0.132369 -2.85074 0.00188752
1136 1 0.8 0.3 0.198311 -2.84652 0.000437742
1163 1 0.8 0.4 0.198311 -2.84652 0.000437742
1164 1 0.833333 0.4 0.132369 -2.85074 0.00188752
1167 1 0.833333 0.3 0.132369 -2.85074 0.00188752
1165 1 0.85 0.35 0.198311 -2.84652 0.000437742
1170 1 0.883333 0.35 0.132369 -2.85074 0.00188752
1287 1 0.9 0.4 0.198311 -2.84652 0.000437742
1290 1 0.9 0.3 0.198311 -2.84652 0.000437742
1291 1 0.933333 0.3 0.132369 -2.85074 0.00188752
1293 1 0.95 0.35 0.198311 -2.84652 0.000437742
1316 1 0.933333 0.4 0.132369 -2.85074 0.00188752
1318 1 0.983333 0.35 0.132369 -2.85074 0.00188752
51 1 0 0.5 0.198311 -2.84652 0.000437742
57 1 0.05 0.45 0.198311 -2.84652 0.000437742
74 1 0.05 0.55 0.198311 -2.84652 0.000437742
76 1 0.0333333 0.5 0.132369 -2.85074 0.00188752
78 1 0.0833333 0.45 0.132369 -2.85074 0.00188752
79 1 0.0833333 0.55 0.132369 -2.85074 0.00188752
197 1 0.1 0.5 0.198311 -2.84652 0.000437742
198 1 0.133333 0.5 0.132369 -2.85074 0.00188752
199 1 0.15 0.45 0.198311 -2.84652 0.000437742
200 1 0.15 0.55 0.198311 -2.84652 0.000437742
204 1 0.183333 0.45 0.132369 -2.85074 0.00188752
227 1 0.183333 0.55 0.132369 -2.85074 0.00188752
320 1 0.2 0.5 0.198311 -2.84652 0.000437742
326 1 0.25 0.45 0.198311 -2.84652 0.000437742
352 1 0.25 0.55 0.198311 -2.84652 0.000437742
354 1 0.233333 0.5 0.132369 -2.85074 0.00188752
356 1 0.283333 0.45 0.132369 -2.85074 0.00188752
357 1 0.283333 0.55 0.132369 -2.85074 0.00188752
477 1 0.3 0.5 0.198311 -2.84652 0.000437742
478 1 0.333333 0.5 0.132369 -2.85074 0.00188752
479 1 0.35 0.45 0.198311 -2.84652 0.000437742
480 1 0.35 0.55 0.198311 -2.84652 0.000437742
484 1 0.383333 0.45 0.132369 -2.85074 0.00188752
507 1 0.383333 0.55 0.132369 -2.85074 0.00188752
600 1 0.4 0.5 0.198311 -2.84652 0.000437742
606 1 0.45 0.45 0.198311 -2.84652 0.000437742
632 1 0.45 0.55 0.198311 -2.84652 0.000437742
634 1 0.433333 0.5 0.132369 -2.85074 0.00188752
636 1 0.483333 0.45 0.132369 -2.85074 0.00188752
637 1 0.483333 0.55 0.132369 -2.85074 0.00188752
757 1 0.5 0.5 0.198311 -2.84652 0.000437742
758 1 0.533333 0.5 0.132369 -2.85074 0.00188752
759 1 0.55 0.45 0.198311 -2.84652 0.000437742
760 1 0.55 0.55 0.198311 -2.84652 0.000437742
764 1 0.583333 0.45 0.132369 -2.85074 0.00188752
787 1 0.583333 0.55 0.132369 -2.85074 0.00188752
880 1 0.6 0.5 0.198311 -2.84652 0.000437742
886 1 0.65 0.45 0.198311 -2.84652 0.000437742
912 1 0.65 0.55 0.198311 -2.84652 0.000437742
914 1 0.633333 0.5 0.132369 -2.85074 0.00188752
916 1 0.683333 0.45 0.132369 -2.85074 0.00188752
917 1 0.683333 0.55 0.132369 -2.85074 0.00188752
1037 1 0.7 0.5 0.198311 -2.84652 0.000437742
1038 1 0.733333 0.5 0.132369 -2.85074 0.00188752
1039 1 0.75 0.45 0.198311 -2.84652 0.000437742
1040 1 0.75 0.55 0.198311 -2.84652 0.000437742
1044 1 0.783333 0.45 0.132369 -2.85074 0.00188752
1067 1 0.783333 0.55 0.132369 -2.85074 0.00188752
1160 1 0.8 0.5 0.198311 -2.84652 0.000437742
1194 1 0.833333 0.5 0.132369 -2.85074 0.00188752
1166 1 0.85 0.45 0.198311 -2.84652 0.000437742
1192 1 0.85 0.55 0.198311 -2.84652 0.000437742
1196 1 0.883333 0.45 0.132369 -2.85074 0.00188752
1197 1 0.883333 0.55 0.132369 -2.85074 0.00188752
1312 1 0.9 0.5 0.198311 -2.84652 0.000437742
1313 1 0.933333 0.5 0.132369 -2.85074 0.00188752
1314 1 0.95 0.45 0.198311 -2.84652 0.000437742
1315 1 0.95 0.55 0.198311 -2.84652 0.000437742
1319 1 0.983333 0.45 0.132369 -2.85074 0.00188752
1336 1 0.983333 0.55 0.132369 -2.85074 0.00188752