ITEM: TIMESTEP
58
ITEM: NUMBER OF ATOMS
3200
ITEM: BOX BOUNDS pp pp ss
0.0000000000000000e+00 5.0092067021360698e+01
0.0000000000000000e+00 2.8920668379047399e+01
3.8451742731260487e-02 3.5381988531723906e+01
ITEM: ATOMS id type xs ys zs c_peratom c_csym
1 1 0 0.1 -0.00541011 -2.47709 24.5091
2 1 0.0166667 0.05 0.0602269 -2.83188 0.00502039
4 1 0 0 -0.00541011 -2.47709 24.5091
5 1 0.05 0.05 -0.00541011 -2.47709 24.5091
45 1 0.0666667 0.1 0.0602269 -2.83188 0.00502039
48 1 0.0666667 0 0.0602269 -2.83188 0.00502039
49 1 0.1 0 -0.00541011 -2.47709 24.5091
50 1 0.116667 0.05 0.0602269 -2.83188 0.00502039
66 1 0.1 0.1 -0.00541011 -2.47709 24.5091
67 1 0.15 0.05 -0.00541011 -2.47709 24.5091
155 1 0.166667 0 0.0602269 -2.83188 0.00502039
178 1 0.166667 0.1 0.0602269 -2.83188 0.00502039
179 1 0.2 0.1 -0.00541011 -2.47709 24.5091
180 1 0.216667 0.05 0.0602269 -2.83188 0.00502039
182 1 0.2 0 -0.00541011 -2.47709 24.5091
183 1 0.25 0.05 -0.00541011 -2.47709 24.5091
304 1 0.266667 0.1 0.0602269 -2.83188 0.00502039
307 1 0.266667 0 0.0602269 -2.83188 0.00502039
308 1 0.3 0 -0.00541011 -2.47709 24.5091
309 1 0.316667 0.05 0.0602269 -2.83188 0.00502039
335 1 0.3 0.1 -0.00541011 -2.47709 24.5091
336 1 0.35 0.05 -0.00541011 -2.47709 24.5091
435 1 0.366667 0 0.0602269 -2.83188 0.00502039
458 1 0.366667 0.1 0.0602269 -2.83188 0.00502039
459 1 0.4 0.1 -0.00541011 -2.47709 24.5091
460 1 0.416667 0.05 0.0602269 -2.83188 0.00502039
462 1 0.4 0 -0.00541011 -2.47709 24.5091
463 1 0.45 0.05 -0.00541011 -2.47709 24.5091
584 1 0.466667 0.1 0.0602269 -2.83188 0.00502039
587 1 0.466667 0 0.0602269 -2.83188 0.00502039
588 1 0.5 0 -0.00541011 -2.47709 24.5091
615 1 0.5 0.1 -0.00541011 -2.47709 24.5091
589 1 0.516667 0.05 0.0602269 -2.83188 0.00502039
616 1 0.55 0.05 -0.00541011 -2.47709 24.5091
715 1 0.566667 0 0.0602269 -2.83188 0.00502039
738 1 0.566667 0.1 0.0602269 -2.83188 0.00502039
739 1 0.6 0.1 -0.00541011 -2.47709 24.5091
740 1 0.616667 0.05 0.0602269 -2.83188 0.00502039
742 1 0.6 0 -0.00541011 -2.47709 24.5091
743 1 0.65 0.05 -0.00541011 -2.47709 24.5091
864 1 0.666667 0.1 0.0602269 -2.83188 0.00502039
867 1 0.666667 0 0.0602269 -2.83188 0.00502039
868 1 0.7 0 -0.00541011 -2.47709 24.5091
869 1 0.716667 0.05 0.0602269 -2.83188 0.00502039
895 1 0.7 0.1 -0.00541011 -2.47709 24.5091
896 1 0.75 0.05 -0.00541011 -2.47709 24.5091
995 1 0.766667 0 0.0602269 -2.83188 0.00502039
1018 1 0.766667 0.1 0.0602269 -2.83188 0.00502039
1019 1 0.8 0.1 -0.00541011 -2.47709 24.5091
1020 1 0.816667 0.05 0.0602269 -2.83188 0.00502039
1022 1 0.8 0 -0.00541011 -2.47709 24.5091
1023 1 0.85 0.05 -0.00541011 -2.47709 24.5091
1144 1 0.866667 0.1 0.0602269 -2.83188 0.00502039
1147 1 0.866667 0 0.0602269 -2.83188 0.00502039
1148 1 0.9 0 -0.00541011 -2.47709 24.5091
1149 1 0.916667 0.05 0.0602269 -2.83188 0.00502039
1175 1 0.9 0.1 -0.00541011 -2.47709 24.5091
1176 1 0.95 0.05 -0.00541011 -2.47709 24.5091
1275 1 0.966667 0 0.0602269 -2.83188 0.00502039
1298 1 0.966667 0.1 0.0602269 -2.83188 0.00502039
3 1 0.0166667 0.15 0.0602269 -2.83188 0.00502039
7 1 0.0166667 0.25 0.0602269 -2.83188 0.00502039
9 1 0 0.2 -0.00541011 -2.47709 24.5091
10 1 0.05 0.15 -0.00541011 -2.47709 24.5091
11 1 0.05 0.25 -0.00541011 -2.47709 24.5091
62 1 0.0666667 0.2 0.0602269 -2.83188 0.00502039
63 1 0.1 0.2 -0.00541011 -2.47709 24.5091
64 1 0.116667 0.15 0.0602269 -2.83188 0.00502039
65 1 0.116667 0.25 0.0602269 -2.83188 0.00502039
68 1 0.15 0.15 -0.00541011 -2.47709 24.5091
85 1 0.15 0.25 -0.00541011 -2.47709 24.5091
175 1 0.166667 0.2 0.0602269 -2.83188 0.00502039
181 1 0.216667 0.15 0.0602269 -2.83188 0.00502039
207 1 0.216667 0.25 0.0602269 -2.83188 0.00502039
209 1 0.2 0.2 -0.00541011 -2.47709 24.5091
210 1 0.25 0.15 -0.00541011 -2.47709 24.5091
211 1 0.25 0.25 -0.00541011 -2.47709 24.5091
331 1 0.266667 0.2 0.0602269 -2.83188 0.00502039
332 1 0.3 0.2 -0.00541011 -2.47709 24.5091
333 1 0.316667 0.15 0.0602269 -2.83188 0.00502039
334 1 0.316667 0.25 0.0602269 -2.83188 0.00502039
337 1 0.35 0.15 -0.00541011 -2.47709 24.5091
363 1 0.35 0.25 -0.00541011 -2.47709 24.5091
455 1 0.366667 0.2 0.0602269 -2.83188 0.00502039
461 1 0.416667 0.15 0.0602269 -2.83188 0.00502039
487 1 0.416667 0.25 0.0602269 -2.83188 0.00502039
489 1 0.4 0.2 -0.00541011 -2.47709 24.5091
490 1 0.45 0.15 -0.00541011 -2.47709 24.5091
491 1 0.45 0.25 -0.00541011 -2.47709 24.5091
611 1 0.466667 0.2 0.0602269 -2.83188 0.00502039
612 1 0.5 0.2 -0.00541011 -2.47709 24.5091
613 1 0.516667 0.15 0.0602269 -2.83188 0.00502039
614 1 0.516667 0.25 0.0602269 -2.83188 0.00502039
617 1 0.55 0.15 -0.00541011 -2.47709 24.5091
643 1 0.55 0.25 -0.00541011 -2.47709 24.5091
735 1 0.566667 0.2 0.0602269 -2.83188 0.00502039
741 1 0.616667 0.15 0.0602269 -2.83188 0.00502039
767 1 0.616667 0.25 0.0602269 -2.83188 0.00502039
769 1 0.6 0.2 -0.00541011 -2.47709 24.5091
770 1 0.65 0.15 -0.00541011 -2.47709 24.5091
771 1 0.65 0.25 -0.00541011 -2.47709 24.5091
891 1 0.666667 0.2 0.0602269 -2.83188 0.00502039
892 1 0.7 0.2 -0.00541011 -2.47709 24.5091
893 1 0.716667 0.15 0.0602269 -2.83188 0.00502039
894 1 0.716667 0.25 0.0602269 -2.83188 0.00502039
897 1 0.75 0.15 -0.00541011 -2.47709 24.5091
923 1 0.75 0.25 -0.00541011 -2.47709 24.5091
1015 1 0.766667 0.2 0.0602269 -2.83188 0.00502039
1021 1 0.816667 0.15 0.0602269 -2.83188 0.00502039
1047 1 0.816667 0.25 0.0602269 -2.83188 0.00502039
1049 1 0.8 0.2 -0.00541011 -2.47709 24.5091
1050 1 0.85 0.15 -0.00541011 -2.47709 24.5091
1051 1 0.85 0.25 -0.00541011 -2.47709 24.5091
1171 1 0.866667 0.2 0.0602269 -2.83188 0.00502039
1172 1 0.9 0.2 -0.00541011 -2.47709 24.5091
1173 1 0.916667 0.15 0.0602269 -2.83188 0.00502039
1174 1 0.916667 0.25 0.0602269 -2.83188 0.00502039
1177 1 0.95 0.15 -0.00541011 -2.47709 24.5091
1203 1 0.95 0.25 -0.00541011 -2.47709 24.5091
1295 1 0.966667 0.2 0.0602269 -2.83188 0.00502039
6 1 0 0.3 -0.00541011 -2.47709 24.5091
8 1 0.0166667 0.35 0.0602269 -2.83188 0.00502039
15 1 0 0.4 -0.00541011 -2.47709 24.5091
16 1 0.05 0.35 -0.00541011 -2.47709 24.5091
59 1 0.0666667 0.3 0.0602269 -2.83188 0.00502039
80 1 0.0666667 0.4 0.0602269 -2.83188 0.00502039
81 1 0.1 0.4 -0.00541011 -2.47709 24.5091
82 1 0.116667 0.35 0.0602269 -2.83188 0.00502039
84 1 0.1 0.3 -0.00541011 -2.47709 24.5091
86 1 0.15 0.35 -0.00541011 -2.47709 24.5091
202 1 0.166667 0.4 0.0602269 -2.83188 0.00502039
205 1 0.166667 0.3 0.0602269 -2.83188 0.00502039
206 1 0.2 0.3 -0.00541011 -2.47709 24.5091
208 1 0.216667 0.35 0.0602269 -2.83188 0.00502039
233 1 0.2 0.4 -0.00541011 -2.47709 24.5091
234 1 0.25 0.35 -0.00541011 -2.47709 24.5091
328 1 0.266667 0.3 0.0602269 -2.83188 0.00502039
358 1 0.266667 0.4 0.0602269 -2.83188 0.00502039
359 1 0.3 0.4 -0.00541011 -2.47709 24.5091
360 1 0.316667 0.35 0.0602269 -2.83188 0.00502039
362 1 0.3 0.3 -0.00541011 -2.47709 24.5091
364 1 0.35 0.35 -0.00541011 -2.47709 24.5091
482 1 0.366667 0.4 0.0602269 -2.83188 0.00502039
485 1 0.366667 0.3 0.0602269 -2.83188 0.00502039
486 1 0.4 0.3 -0.00541011 -2.47709 24.5091
488 1 0.416667 0.35 0.0602269 -2.83188 0.00502039
513 1 0.4 0.4 -0.00541011 -2.47709 24.5091
514 1 0.45 0.35 -0.00541011 -2.47709 24.5091
608 1 0.466667 0.3 0.0602269 -2.83188 0.00502039
638 1 0.466667 0.4 0.0602269 -2.83188 0.00502039
639 1 0.5 0.4 -0.00541011 -2.47709 24.5091
642 1 0.5 0.3 -0.00541011 -2.47709 24.5091
640 1 0.516667 0.35 0.0602269 -2.83188 0.00502039
644 1 0.55 0.35 -0.00541011 -2.47709 24.5091
762 1 0.566667 0.4 0.0602269 -2.83188 0.00502039
765 1 0.566667 0.3 0.0602269 -2.83188 0.00502039
766 1 0.6 0.3 -0.00541011 -2.47709 24.5091
768 1 0.616667 0.35 0.0602269 -2.83188 0.00502039
793 1 0.6 0.4 -0.00541011 -2.47709 24.5091
794 1 0.65 0.35 -0.00541011 -2.47709 24.5091
888 1 0.666667 0.3 0.0602269 -2.83188 0.00502039
918 1 0.666667 0.4 0.0602269 -2.83188 0.00502039
919 1 0.7 0.4 -0.00541011 -2.47709 24.5091
920 1 0.716667 0.35 0.0602269 -2.83188 0.00502039
922 1 0.7 0.3 -0.00541011 -2.47709 24.5091
924 1 0.75 0.35 -0.00541011 -2.47709 24.5091
1042 1 0.766667 0.4 0.0602269 -2.83188 0.00502039
1045 1 0.766667 0.3 0.0602269 -2.83188 0.00502039
1046 1 0.8 0.3 -0.00541011 -2.47709 24.5091
1048 1 0.816667 0.35 0.0602269 -2.83188 0.00502039
1073 1 0.8 0.4 -0.00541011 -2.47709 24.5091
1074 1 0.85 0.35 -0.00541011 -2.47709 24.5091
1168 1 0.866667 0.3 0.0602269 -2.83188 0.00502039
1198 1 0.866667 0.4 0.0602269 -2.83188 0.00502039
1199 1 0.9 0.4 -0.00541011 -2.47709 24.5091
1200 1 0.916667 0.35 0.0602269 -2.83188 0.00502039
1202 1 0.9 0.3 -0.00541011 -2.47709 24.5091
1204 1 0.95 0.35 -0.00541011 -2.47709 24.5091
1317 1 0.966667 0.4 0.0602269 -2.83188 0.00502039
1320 1 0.966667 0.3 0.0602269 -2.83188 0.00502039
12 1 0 0.5 -0.00541011 -2.47709 24.5091
13 1 0.0166667 0.45 0.0602269 -2.83188 0.00502039
14 1 0.0166667 0.55 0.0602269 -2.83188 0.00502039
17 1 0.05 0.45 -0.00541011 -2.47709 24.5091
22 1 0.05 0.55 -0.00541011 -2.47709 24.5091
77 1 0.0666667 0.5 0.0602269 -2.83188 0.00502039
83 1 0.116667 0.45 0.0602269 -2.83188 0.00502039
100 1 0.116667 0.55 0.0602269 -2.83188 0.00502039
102 1 0.1 0.5 -0.00541011 -2.47709 24.5091
103 1 0.15 0.45 -0.00541011 -2.47709 24.5091
104 1 0.15 0.55 -0.00541011 -2.47709 24.5091
229 1 0.166667 0.5 0.0602269 -2.83188 0.00502039
230 1 0.2 0.5 -0.00541011 -2.47709 24.5091
231 1 0.216667 0.45 0.0602269 -2.83188 0.00502039
232 1 0.216667 0.55 0.0602269 -2.83188 0.00502039
235 1 0.25 0.45 -0.00541011 -2.47709 24.5091
250 1 0.25 0.55 -0.00541011 -2.47709 24.5091
355 1 0.266667 0.5 0.0602269 -2.83188 0.00502039
361 1 0.316667 0.45 0.0602269 -2.83188 0.00502039
380 1 0.316667 0.55 0.0602269 -2.83188 0.00502039
382 1 0.3 0.5 -0.00541011 -2.47709 24.5091
383 1 0.35 0.45 -0.00541011 -2.47709 24.5091
384 1 0.35 0.55 -0.00541011 -2.47709 24.5091
509 1 0.366667 0.5 0.0602269 -2.83188 0.00502039
510 1 0.4 0.5 -0.00541011 -2.47709 24.5091
511 1 0.416667 0.45 0.0602269 -2.83188 0.00502039
512 1 0.416667 0.55 0.0602269 -2.83188 0.00502039
515 1 0.45 0.45 -0.00541011 -2.47709 24.5091
530 1 0.45 0.55 -0.00541011 -2.47709 24.5091
635 1 0.466667 0.5 0.0602269 -2.83188 0.00502039
662 1 0.5 0.5 -0.00541011 -2.47709 24.5091
641 1 0.516667 0.45 0.0602269 -2.83188 0.00502039
660 1 0.516667 0.55 0.0602269 -2.83188 0.00502039
663 1 0.55 0.45 -0.00541011 -2.47709 24.5091
664 1 0.55 0.55 -0.00541011 -2.47709 24.5091
789 1 0.566667 0.5 0.0602269 -2.83188 0.00502039
790 1 0.6 0.5 -0.00541011 -2.47709 24.5091
791 1 0.616667 0.45 0.0602269 -2.83188 0.00502039
792 1 0.616667 0.55 0.0602269 -2.83188 0.00502039
795 1 0.65 0.45 -0.00541011 -2.47709 24.5091
810 1 0.65 0.55 -0.00541011 -2.47709 24.5091
915 1 0.666667 0.5 0.0602269 -2.83188 0.00502039
921 1 0.716667 0.45 0.0602269 -2.83188 0.00502039
940 1 0.716667 0.55 0.0602269 -2.83188 0.00502039
942 1 0.7 0.5 -0.00541011 -2.47709 24.5091
943 1 0.75 0.45 -0.00541011 -2.47709 24.5091
944 1 0.75 0.55 -0.00541011 -2.47709 24.5091
1069 1 0.766667 0.5 0.0602269 -2.83188 0.00502039
1070 1 0.8 0.5 -0.00541011 -2.47709 24.5091
1071 1 0.816667 0.45 0.0602269 -2.83188 0.00502039
1072 1 0.816667 0.55 0.0602269 -2.83188 0.00502039
1075 1 0.85 0.45 -0.00541011 -2.47709 24.5091
1090 1 0.85 0.55 -0.00541011 -2.47709 24.5091
1195 1 0.866667 0.5 0.0602269 -2.83188 0.00502039
1201 1 0.916667 0.45 0.0602269 -2.83188 0.00502039
1220 1 0.916667 0.55 0.0602269 -2.83188 0.00502039
1222 1 0.9 0.5 -0.00541011 -2.47709 24.5091
1223 1 0.95 0.45 -0.00541011 -2.47709 24.5091
1224 1 0.95 0.55 -0.00541011 -2.47709 24.5091
1338 1 0.966667 0.5 0.0602269 -2.83188 0.00502039
18 1 0 0.7 -0.00541011 -2.47709 24.5091
19 1 0.0166667 0.65 0.0602269 -2.83188 0.00502039
21 1 0 0.6 -0.00541011 -2.47709 24.5091
23 1 0.05 0.65 -0.00541011 -2.47709 24.5091
95 1 0.0666667 0.7 0.0602269 -2.83188 0.00502039
98 1 0.0666667 0.6 0.0602269 -2.83188 0.00502039
99 1 0.1 0.6 -0.00541011 -2.47709 24.5091
101 1 0.116667 0.65 0.0602269 -2.83188 0.00502039
114 1 0.1 0.7 -0.00541011 -2.47709 24.5091
115 1 0.15 0.65 -0.00541011 -2.47709 24.5091
226 1 0.166667 0.6 0.0602269 -2.83188 0.00502039
245 1 0.166667 0.7 0.0602269 -2.83188 0.00502039
246 1 0.2 0.7 -0.00541011 -2.47709 24.5091
247 1 0.216667 0.65 0.0602269 -2.83188 0.00502039
249 1 0.2 0.6 -0.00541011 -2.47709 24.5091
251 1 0.25 0.65 -0.00541011 -2.47709 24.5091
375 1 0.266667 0.7 0.0602269 -2.83188 0.00502039
378 1 0.266667 0.6 0.0602269 -2.83188 0.00502039
379 1 0.3 0.6 -0.00541011 -2.47709 24.5091
381 1 0.316667 0.65 0.0602269 -2.83188 0.00502039
394 1 0.3 0.7 -0.00541011 -2.47709 24.5091
395 1 0.35 0.65 -0.00541011 -2.47709 24.5091
506 1 0.366667 0.6 0.0602269 -2.83188 0.00502039
525 1 0.366667 0.7 0.0602269 -2.83188 0.00502039
526 1 0.4 0.7 -0.00541011 -2.47709 24.5091
527 1 0.416667 0.65 0.0602269 -2.83188 0.00502039
529 1 0.4 0.6 -0.00541011 -2.47709 24.5091
531 1 0.45 0.65 -0.00541011 -2.47709 24.5091
655 1 0.466667 0.7 0.0602269 -2.83188 0.00502039
658 1 0.466667 0.6 0.0602269 -2.83188 0.00502039
659 1 0.5 0.6 -0.00541011 -2.47709 24.5091
674 1 0.5 0.7 -0.00541011 -2.47709 24.5091
661 1 0.516667 0.65 0.0602269 -2.83188 0.00502039
675 1 0.55 0.65 -0.00541011 -2.47709 24.5091
786 1 0.566667 0.6 0.0602269 -2.83188 0.00502039
805 1 0.566667 0.7 0.0602269 -2.83188 0.00502039
806 1 0.6 0.7 -0.00541011 -2.47709 24.5091
807 1 0.616667 0.65 0.0602269 -2.83188 0.00502039
809 1 0.6 0.6 -0.00541011 -2.47709 24.5091
811 1 0.65 0.65 -0.00541011 -2.47709 24.5091
935 1 0.666667 0.7 0.0602269 -2.83188 0.00502039
938 1 0.666667 0.6 0.0602269 -2.83188 0.00502039
939 1 0.7 0.6 -0.00541011 -2.47709 24.5091
941 1 0.716667 0.65 0.0602269 -2.83188 0.00502039
954 1 0.7 0.7 -0.00541011 -2.47709 24.5091
955 1 0.75 0.65 -0.00541011 -2.47709 24.5091
1066 1 0.766667 0.6 0.0602269 -2.83188 0.00502039
1085 1 0.766667 0.7 0.0602269 -2.83188 0.00502039
1086 1 0.8 0.7 -0.00541011 -2.47709 24.5091
1087 1 0.816667 0.65 0.0602269 -2.83188 0.00502039
1089 1 0.8 0.6 -0.00541011 -2.47709 24.5091
1091 1 0.85 0.65 -0.00541011 -2.47709 24.5091
1215 1 0.866667 0.7 0.0602269 -2.83188 0.00502039
1218 1 0.866667 0.6 0.0602269 -2.83188 0.00502039
1219 1 0.9 0.6 -0.00541011 -2.47709 24.5091
1221 1 0.916667 0.65 0.0602269 -2.83188 0.00502039
1234 1 0.9 0.7 -0.00541011 -2.47709 24.5091
1235 1 0.95 0.65 -0.00541011 -2.47709 24.5091
1335 1 0.966667 0.6 0.0602269 -2.83188 0.00502039
1348 1 0.966667 0.7 0.0602269 -2.83188 0.00502039
20 1 0.0166667 0.75 0.0602269 -2.83188 0.00502039
25 1 0.0166667 0.85 0.0602269 -2.83188 0.00502039
27 1 0 0.8 -0.00541011 -2.47709 24.5091
28 1 0.05 0.75 -0.00541011 -2.47709 24.5091
29 1 0.05 0.85 -0.00541011 -2.47709 24.5091
110 1 0.0666667 0.8 0.0602269 -2.83188 0.00502039
111 1 0.1 0.8 -0.00541011 -2.47709 24.5091
112 1 0.116667 0.75 0.0602269 -2.83188 0.00502039
113 1 0.116667 0.85 0.0602269 -2.83188 0.00502039
116 1 0.15 0.75 -0.00541011 -2.47709 24.5091
119 1 0.15 0.85 -0.00541011 -2.47709 24.5091
242 1 0.166667 0.8 0.0602269 -2.83188 0.00502039
248 1 0.216667 0.75 0.0602269 -2.83188 0.00502039
255 1 0.216667 0.85 0.0602269 -2.83188 0.00502039
257 1 0.2 0.8 -0.00541011 -2.47709 24.5091
258 1 0.25 0.75 -0.00541011 -2.47709 24.5091
259 1 0.25 0.85 -0.00541011 -2.47709 24.5091
390 1 0.266667 0.8 0.0602269 -2.83188 0.00502039
391 1 0.3 0.8 -0.00541011 -2.47709 24.5091
392 1 0.316667 0.75 0.0602269 -2.83188 0.00502039
393 1 0.316667 0.85 0.0602269 -2.83188 0.00502039
396 1 0.35 0.75 -0.00541011 -2.47709 24.5091
399 1 0.35 0.85 -0.00541011 -2.47709 24.5091
522 1 0.366667 0.8 0.0602269 -2.83188 0.00502039
528 1 0.416667 0.75 0.0602269 -2.83188 0.00502039
535 1 0.416667 0.85 0.0602269 -2.83188 0.00502039
537 1 0.4 0.8 -0.00541011 -2.47709 24.5091
538 1 0.45 0.75 -0.00541011 -2.47709 24.5091
539 1 0.45 0.85 -0.00541011 -2.47709 24.5091
670 1 0.466667 0.8 0.0602269 -2.83188 0.00502039
671 1 0.5 0.8 -0.00541011 -2.47709 24.5091
672 1 0.516667 0.75 0.0602269 -2.83188 0.00502039
673 1 0.516667 0.85 0.0602269 -2.83188 0.00502039
676 1 0.55 0.75 -0.00541011 -2.47709 24.5091
679 1 0.55 0.85 -0.00541011 -2.47709 24.5091
802 1 0.566667 0.8 0.0602269 -2.83188 0.00502039
808 1 0.616667 0.75 0.0602269 -2.83188 0.00502039
815 1 0.616667 0.85 0.0602269 -2.83188 0.00502039
817 1 0.6 0.8 -0.00541011 -2.47709 24.5091
818 1 0.65 0.75 -0.00541011 -2.47709 24.5091
819 1 0.65 0.85 -0.00541011 -2.47709 24.5091
950 1 0.666667 0.8 0.0602269 -2.83188 0.00502039
951 1 0.7 0.8 -0.00541011 -2.47709 24.5091
952 1 0.716667 0.75 0.0602269 -2.83188 0.00502039
953 1 0.716667 0.85 0.0602269 -2.83188 0.00502039
956 1 0.75 0.75 -0.00541011 -2.47709 24.5091
959 1 0.75 0.85 -0.00541011 -2.47709 24.5091
1082 1 0.766667 0.8 0.0602269 -2.83188 0.00502039
1088 1 0.816667 0.75 0.0602269 -2.83188 0.00502039
1095 1 0.816667 0.85 0.0602269 -2.83188 0.00502039
1097 1 0.8 0.8 -0.00541011 -2.47709 24.5091
1098 1 0.85 0.75 -0.00541011 -2.47709 24.5091
1099 1 0.85 0.85 -0.00541011 -2.47709 24.5091
1230 1 0.866667 0.8 0.0602269 -2.83188 0.00502039
1231 1 0.9 0.8 -0.00541011 -2.47709 24.5091
1232 1 0.916667 0.75 0.0602269 -2.83188 0.00502039
1233 1 0.916667 0.85 0.0602269 -2.83188 0.00502039
1236 1 0.95 0.75 -0.00541011 -2.47709 24.5091
1239 1 0.95 0.85 -0.00541011 -2.47709 24.5091
1345 1 0.966667 0.8 0.0602269 -2.83188 0.00502039
24 1 0 0.9 -0.00541011 -2.47709 24.5091
26 1 0.0166667 0.95 0.0602269 -2.83188 0.00502039
30 1 0.05 0.95 -0.00541011 -2.47709 24.5091
107 1 0.0666667 0.9 0.0602269 -2.83188 0.00502039
117 1 0.116667 0.95 0.0602269 -2.83188 0.00502039
118 1 0.1 0.9 -0.00541011 -2.47709 24.5091
120 1 0.15 0.95 -0.00541011 -2.47709 24.5091
253 1 0.166667 0.9 0.0602269 -2.83188 0.00502039
254 1 0.2 0.9 -0.00541011 -2.47709 24.5091
256 1 0.216667 0.95 0.0602269 -2.83188 0.00502039
260 1 0.25 0.95 -0.00541011 -2.47709 24.5091
387 1 0.266667 0.9 0.0602269 -2.83188 0.00502039
397 1 0.316667 0.95 0.0602269 -2.83188 0.00502039
398 1 0.3 0.9 -0.00541011 -2.47709 24.5091
400 1 0.35 0.95 -0.00541011 -2.47709 24.5091
533 1 0.366667 0.9 0.0602269 -2.83188 0.00502039
534 1 0.4 0.9 -0.00541011 -2.47709 24.5091
536 1 0.416667 0.95 0.0602269 -2.83188 0.00502039
540 1 0.45 0.95 -0.00541011 -2.47709 24.5091
667 1 0.466667 0.9 0.0602269 -2.83188 0.00502039
678 1 0.5 0.9 -0.00541011 -2.47709 24.5091
677 1 0.516667 0.95 0.0602269 -2.83188 0.00502039
680 1 0.55 0.95 -0.00541011 -2.47709 24.5091
813 1 0.566667 0.9 0.0602269 -2.83188 0.00502039
814 1 0.6 0.9 -0.00541011 -2.47709 24.5091
816 1 0.616667 0.95 0.0602269 -2.83188 0.00502039
820 1 0.65 0.95 -0.00541011 -2.47709 24.5091
947 1 0.666667 0.9 0.0602269 -2.83188 0.00502039
957 1 0.716667 0.95 0.0602269 -2.83188 0.00502039
958 1 0.7 0.9 -0.00541011 -2.47709 24.5091
960 1 0.75 0.95 -0.00541011 -2.47709 24.5091
1093 1 0.766667 0.9 0.0602269 -2.83188 0.00502039
1094 1 0.8 0.9 -0.00541011 -2.47709 24.5091
1096 1 0.816667 0.95 0.0602269 -2.83188 0.00502039
1100 1 0.85 0.95 -0.00541011 -2.47709 24.5091
1227 1 0.866667 0.9 0.0602269 -2.83188 0.00502039
1237 1 0.916667 0.95 0.0602269 -2.83188 0.00502039
1238 1 0.9 0.9 -0.00541011 -2.47709 24.5091
1240 1 0.95 0.95 -0.00541011 -2.47709 24.5091
1350 1 0.966667 0.9 0.0602269 -2.83188 0.00502039
31 1 0 0.1 0.193837 -2.85003 1.21616e-07
34 1 0 0 0.193837 -2.85003 1.21616e-07
35 1 0.0333333 0 0.127021 -2.8512 1.68856e-06
36 1 0.05 0.05 0.193837 -2.85003 1.21616e-07
44 1 0.0333333 0.1 0.127021 -2.8512 1.68856e-06
46 1 0.0833333 0.05 0.127021 -2.8512 1.68856e-06
135 1 0.1 0 0.193837 -2.85003 1.21616e-07
150 1 0.1 0.1 0.193837 -2.85003 1.21616e-07
151 1 0.133333 0.1 0.127021 -2.8512 1.68856e-06
152 1 0.15 0.05 0.193837 -2.85003 1.21616e-07
154 1 0.133333 0 0.127021 -2.8512 1.68856e-06
156 1 0.183333 0.05 0.127021 -2.8512 1.68856e-06
280 1 0.2 0.1 0.193837 -2.85003 1.21616e-07
283 1 0.2 0 0.193837 -2.85003 1.21616e-07
284 1 0.233333 0 0.127021 -2.8512 1.68856e-06
285 1 0.25 0.05 0.193837 -2.85003 1.21616e-07
303 1 0.233333 0.1 0.127021 -2.8512 1.68856e-06
305 1 0.283333 0.05 0.127021 -2.8512 1.68856e-06
415 1 0.3 0 0.193837 -2.85003 1.21616e-07
430 1 0.3 0.1 0.193837 -2.85003 1.21616e-07
431 1 0.333333 0.1 0.127021 -2.8512 1.68856e-06
434 1 0.333333 0 0.127021 -2.8512 1.68856e-06
432 1 0.35 0.05 0.193837 -2.85003 1.21616e-07
436 1 0.383333 0.05 0.127021 -2.8512 1.68856e-06
560 1 0.4 0.1 0.193837 -2.85003 1.21616e-07
563 1 0.4 0 0.193837 -2.85003 1.21616e-07
564 1 0.433333 0 0.127021 -2.8512 1.68856e-06
565 1 0.45 0.05 0.193837 -2.85003 1.21616e-07
583 1 0.433333 0.1 0.127021 -2.8512 1.68856e-06
585 1 0.483333 0.05 0.127021 -2.8512 1.68856e-06
695 1 0.5 0 0.193837 -2.85003 1.21616e-07
710 1 0.5 0.1 0.193837 -2.85003 1.21616e-07
711 1 0.533333 0.1 0.127021 -2.8512 1.68856e-06
712 1 0.55 0.05 0.193837 -2.85003 1.21616e-07
714 1 0.533333 0 0.127021 -2.8512 1.68856e-06
716 1 0.583333 0.05 0.127021 -2.8512 1.68856e-06
840 1 0.6 0.1 0.193837 -2.85003 1.21616e-07
843 1 0.6 0 0.193837 -2.85003 1.21616e-07
844 1 0.633333 0 0.127021 -2.8512 1.68856e-06
845 1 0.65 0.05 0.193837 -2.85003 1.21616e-07
863 1 0.633333 0.1 0.127021 -2.8512 1.68856e-06
865 1 0.683333 0.05 0.127021 -2.8512 1.68856e-06
975 1 0.7 0 0.193837 -2.85003 1.21616e-07
990 1 0.7 0.1 0.193837 -2.85003 1.21616e-07
991 1 0.733333 0.1 0.127021 -2.8512 1.68856e-06
992 1 0.75 0.05 0.193837 -2.85003 1.21616e-07
994 1 0.733333 0 0.127021 -2.8512 1.68856e-06
996 1 0.783333 0.05 0.127021 -2.8512 1.68856e-06
1120 1 0.8 0.1 0.193837 -2.85003 1.21616e-07
1123 1 0.8 0 0.193837 -2.85003 1.21616e-07
1124 1 0.833333 0 0.127021 -2.8512 1.68856e-06
1143 1 0.833333 0.1 0.127021 -2.8512 1.68856e-06
1125 1 0.85 0.05 0.193837 -2.85003 1.21616e-07
1145 1 0.883333 0.05 0.127021 -2.8512 1.68856e-06
1255 1 0.9 0 0.193837 -2.85003 1.21616e-07
1270 1 0.9 0.1 0.193837 -2.85003 1.21616e-07
1271 1 0.933333 0.1 0.127021 -2.8512 1.68856e-06
1272 1 0.95 0.05 0.193837 -2.85003 1.21616e-07
1274 1 0.933333 0 0.127021 -2.8512 1.68856e-06
1276 1 0.983333 0.05 0.127021 -2.8512 1.68856e-06
40 1 0 0.2 0.193837 -2.85003 1.21616e-07
41 1 0.0333333 0.2 0.127021 -2.8512 1.68856e-06
42 1 0.05 0.15 0.193837 -2.85003 1.21616e-07
43 1 0.05 0.25 0.193837 -2.85003 1.21616e-07
47 1 0.0833333 0.15 0.127021 -2.8512 1.68856e-06
60 1 0.0833333 0.25 0.127021 -2.8512 1.68856e-06
147 1 0.1 0.2 0.193837 -2.85003 1.21616e-07
153 1 0.15 0.15 0.193837 -2.85003 1.21616e-07
172 1 0.15 0.25 0.193837 -2.85003 1.21616e-07
174 1 0.133333 0.2 0.127021 -2.8512 1.68856e-06
176 1 0.183333 0.15 0.127021 -2.8512 1.68856e-06
177 1 0.183333 0.25 0.127021 -2.8512 1.68856e-06
299 1 0.2 0.2 0.193837 -2.85003 1.21616e-07
300 1 0.233333 0.2 0.127021 -2.8512 1.68856e-06
301 1 0.25 0.15 0.193837 -2.85003 1.21616e-07
302 1 0.25 0.25 0.193837 -2.85003 1.21616e-07
306 1 0.283333 0.15 0.127021 -2.8512 1.68856e-06
329 1 0.283333 0.25 0.127021 -2.8512 1.68856e-06
427 1 0.3 0.2 0.193837 -2.85003 1.21616e-07
454 1 0.333333 0.2 0.127021 -2.8512 1.68856e-06
433 1 0.35 0.15 0.193837 -2.85003 1.21616e-07
452 1 0.35 0.25 0.193837 -2.85003 1.21616e-07
456 1 0.383333 0.15 0.127021 -2.8512 1.68856e-06
457 1 0.383333 0.25 0.127021 -2.8512 1.68856e-06
579 1 0.4 0.2 0.193837 -2.85003 1.21616e-07
580 1 0.433333 0.2 0.127021 -2.8512 1.68856e-06
581 1 0.45 0.15 0.193837 -2.85003 1.21616e-07
582 1 0.45 0.25 0.193837 -2.85003 1.21616e-07
586 1 0.483333 0.15 0.127021 -2.8512 1.68856e-06
609 1 0.483333 0.25 0.127021 -2.8512 1.68856e-06
707 1 0.5 0.2 0.193837 -2.85003 1.21616e-07
713 1 0.55 0.15 0.193837 -2.85003 1.21616e-07
732 1 0.55 0.25 0.193837 -2.85003 1.21616e-07
734 1 0.533333 0.2 0.127021 -2.8512 1.68856e-06
736 1 0.583333 0.15 0.127021 -2.8512 1.68856e-06
737 1 0.583333 0.25 0.127021 -2.8512 1.68856e-06
859 1 0.6 0.2 0.193837 -2.85003 1.21616e-07
860 1 0.633333 0.2 0.127021 -2.8512 1.68856e-06
861 1 0.65 0.15 0.193837 -2.85003 1.21616e-07
862 1 0.65 0.25 0.193837 -2.85003 1.21616e-07
866 1 0.683333 0.15 0.127021 -2.8512 1.68856e-06
889 1 0.683333 0.25 0.127021 -2.8512 1.68856e-06
987 1 0.7 0.2 0.193837 -2.85003 1.21616e-07
993 1 0.75 0.15 0.193837 -2.85003 1.21616e-07
1012 1 0.75 0.25 0.193837 -2.85003 1.21616e-07
1014 1 0.733333 0.2 0.127021 -2.8512 1.68856e-06
1016 1 0.783333 0.15 0.127021 -2.8512 1.68856e-06
1017 1 0.783333 0.25 0.127021 -2.8512 1.68856e-06
1139 1 0.8 0.2 0.193837 -2.85003 1.21616e-07
1140 1 0.833333 0.2 0.127021 -2.8512 1.68856e-06
1141 1 0.85 0.15 0.193837 -2.85003 1.21616e-07
1142 1 0.85 0.25 0.193837 -2.85003 1.21616e-07
1146 1 0.883333 0.15 0.127021 -2.8512 1.68856e-06
1169 1 0.883333 0.25 0.127021 -2.8512 1.68856e-06
1267 1 0.9 0.2 0.193837 -2.85003 1.21616e-07
1273 1 0.95 0.15 0.193837 -2.85003 1.21616e-07
1292 1 0.95 0.25 0.193837 -2.85003 1.21616e-07
1294 1 0.933333 0.2 0.127021 -2.8512 1.68856e-06
1296 1 0.983333 0.15 0.127021 -2.8512 1.68856e-06
1297 1 0.983333 0.25 0.127021 -2.8512 1.68856e-06
37 1 0 0.3 0.193837 -2.85003 1.21616e-07
54 1 8.86546e-18 0.4 0.193837 -2.85003 1.21616e-07
55 1 0.0333333 0.4 0.127021 -2.8512 1.68856e-06
56 1 0.05 0.35 0.193837 -2.85003 1.21616e-07
58 1 0.0333333 0.3 0.127021 -2.8512 1.68856e-06
61 1 0.0833333 0.35 0.127021 -2.8512 1.68856e-06
167 1 0.1 0.4 0.193837 -2.85003 1.21616e-07
170 1 0.1 0.3 0.193837 -2.85003 1.21616e-07
171 1 0.133333 0.3 0.127021 -2.8512 1.68856e-06
173 1 0.15 0.35 0.193837 -2.85003 1.21616e-07
201 1 0.133333 0.4 0.127021 -2.8512 1.68856e-06
203 1 0.183333 0.35 0.127021 -2.8512 1.68856e-06
296 1 0.2 0.3 0.193837 -2.85003 1.21616e-07
323 1 0.2 0.4 0.193837 -2.85003 1.21616e-07
324 1 0.233333 0.4 0.127021 -2.8512 1.68856e-06
325 1 0.25 0.35 0.193837 -2.85003 1.21616e-07
327 1 0.233333 0.3 0.127021 -2.8512 1.68856e-06
330 1 0.283333 0.35 0.127021 -2.8512 1.68856e-06
447 1 0.3 0.4 0.193837 -2.85003 1.21616e-07
450 1 0.3 0.3 0.193837 -2.85003 1.21616e-07
451 1 0.333333 0.3 0.127021 -2.8512 1.68856e-06
481 1 0.333333 0.4 0.127021 -2.8512 1.68856e-06
453 1 0.35 0.35 0.193837 -2.85003 1.21616e-07
483 1 0.383333 0.35 0.127021 -2.8512 1.68856e-06
576 1 0.4 0.3 0.193837 -2.85003 1.21616e-07
603 1 0.4 0.4 0.193837 -2.85003 1.21616e-07
604 1 0.433333 0.4 0.127021 -2.8512 1.68856e-06
605 1 0.45 0.35 0.193837 -2.85003 1.21616e-07
607 1 0.433333 0.3 0.127021 -2.8512 1.68856e-06
610 1 0.483333 0.35 0.127021 -2.8512 1.68856e-06
727 1 0.5 0.4 0.193837 -2.85003 1.21616e-07
730 1 0.5 0.3 0.193837 -2.85003 1.21616e-07
731 1 0.533333 0.3 0.127021 -2.8512 1.68856e-06
733 1 0.55 0.35 0.193837 -2.85003 1.21616e-07
761 1 0.533333 0.4 0.127021 -2.8512 1.68856e-06
763 1 0.583333 0.35 0.127021 -2.8512 1.68856e-06
856 1 0.6 0.3 0.193837 -2.85003 1.21616e-07
883 1 0.6 0.4 0.193837 -2.85003 1.21616e-07
884 1 0.633333 0.4 0.127021 -2.8512 1.68856e-06
885 1 0.65 0.35 0.193837 -2.85003 1.21616e-07
887 1 0.633333 0.3 0.127021 -2.8512 1.68856e-06
890 1 0.683333 0.35 0.127021 -2.8512 1.68856e-06
1007 1 0.7 0.4 0.193837 -2.85003 1.21616e-07
1010 1 0.7 0.3 0.193837 -2.85003 1.21616e-07
1011 1 0.733333 0.3 0.127021 -2.8512 1.68856e-06
1013 1 0.75 0.35 0.193837 -2.85003 1.21616e-07
1041 1 0.733333 0.4 0.127021 -2.8512 1.68856e-06
1043 1 0.783333 0.35 0.127021 -2.8512 1.68856e-06
1136 1 0.8 0.3 0.193837 -2.85003 1.21616e-07
1163 1 0.8 0.4 0.193837 -2.85003 1.21616e-07
1164 1 0.833333 0.4 0.127021 -2.8512 1.68856e-06
1167 1 0.833333 0.3 0.127021 -2.8512 1.68856e-06
1165 1 0.85 0.35 0.193837 -2.85003 1.21616e-07
1170 1 0.883333 0.35 0.127021 -2.8512 1.68856e-06
1287 1 0.9 0.4 0.193837 -2.85003 1.21616e-07
1290 1 0.9 0.3 0.193837 -2.85003 1.21616e-07
1291 1 0.933333 0.3 0.127021 -2.8512 1.68856e-06
1293 1 0.95 0.35 0.193837 -2.85003 1.21616e-07
1316 1 0.933333 0.4 0.127021 -2.8512 1.68856e-06
1318 1 0.983333 0.35 0.127021 -2.8512 1.68856e-06
51 1 0 0.5 0.193837 -2.85003 1.21616e-07
57 1 0.05 0.45 0.193837 -2.85003 1.21616e-07
74 1 0.05 0.55 0.193837 -2.85003 1.21616e-07
76 1 0.0333333 0.5 0.127021 -2.8512 1.68856e-06
78 1 0.0833333 0.45 0.127021 -2.8512 1.68856e-06
79 1 0.0833333 0.55 0.127021 -2.8512 1.68856e-06
197 1 0.1 0.5 0.193837 -2.85003 1.21616e-07
198 1 0.133333 0.5 0.127021 -2.8512 1.68856e-06
199 1 0.15 0.45 0.193837 -2.85003 1.21616e-07
200 1 0.15 0.55 0.193837 -2.85003 1.21616e-07
204 1 0.183333 0.45 0.127021 -2.8512 1.68856e-06
227 1 0.183333 0.55 0.127021 -2.8512 1.68856e-06
320 1 0.2 0.5 0.193837 -2.85003 1.21616e-07
326 1 0.25 0.45 0.193837 -2.85003 1.21616e-07
352 1 0.25 0.55 0.193837 -2.85003 1.21616e-07
354 1 0.233333 0.5 0.127021 -2.8512 1.68856e-06
356 1 0.283333 0.45 0.127021 -2.8512 1.68856e-06
357 1 0.283333 0.55 0.127021 -2.8512 1.68856e-06
477 1 0.3 0.5 0.193837 -2.85003 1.21616e-07
478 1 0.333333 0.5 0.127021 -2.8512 1.68856e-06
479 1 0.35 0.45 0.193837 -2.85003 1.21616e-07
480 1 0.35 0.55 0.193837 -2.85003 1.21616e-07
484 1 0.383333 0.45 0.127021 -2.8512 1.68856e-06
507 1 0.383333 0.55 0.127021 -2.8512 1.68856e-06
600 1 0.4 0.5 0.193837 -2.85003 1.21616e-07
606 1 0.45 0.45 0.193837 -2.85003 1.21616e-07
632 1 0.45 0.55 0.193837 -2.85003 1.21616e-07
634 1 0.433333 0.5 0.127021 -2.8512 1.68856e-06
636 1 0.483333 0.45 0.127021 -2.8512 1.68856e-06
637 1 0.483333 0.55 0.127021 -2.8512 1.68856e-06
757 1 0.5 0.5 0.193837 -2.85003 1.21616e-07
758 1 0.533333 0.5 0.127021 -2.8512 1.68856e-06
759 1 0.55 0.45 0.193837 -2.85003 1.21616e-07
760 1 0.55 0.55 0.193837 -2.85003 1.21616e-07
764 1 0.583333 0.45 0.127021 -2.8512 1.68856e-06
787 1 0.583333 0.55 0.127021 -2.8512 1.68856e-06
880 1 0.6 0.5 0.193837 -2.85003 1.21616e-07
886 1 0.65 0.45 0.193837 -2.85003 1.21616e-07
912 1 0.65 0.55 0.193837 -2.85003 1.21616e-07
914 1 0.633333 0.5 0.127021 -2.8512 1.68856e-06
916 1 0.683333 0.45 0.127021 -2.8512 1.68856e-06
917 1 0.683333 0.55 0.127021 -2.8512 1.68856e-06
1037 1 0.7 0.5 0.193837 -2.85003 1.21616e-07
1038 1 0.733333 0.5 0.127021 -2.8512 1.68856e-06
1039 1 0.75 0.45 0.193837 -2.85003 1.21616e-07
1040 1 0.75 0.55 0.193837 -2.85003 1.21616e-07
1044 1 0.783333 0.45 0.127021 -2.8512 1.68856e-06
1067 1 0.783333 0.55 0.127021 -2.8512 1.68856e-06
1160 1 0.8 0.5 0.193837 -2.85003 1.21616e-07
1194 1 0.833333 0.5 0.127021 -2.8512 1.68856e-06
1166 1 0.85 0.45 0.193837 -2.85003 1.21616e-07
1192 1 0.85 0.55 0.193837 -2.85003 1.21616e-07
1196 1 0.883333 0.45 0.127021 -2.8512 1.68856e-06
1197 1 0.883333 0.55 0.127021 -2.8512 1.68856e-06
1312 1 0.9 0.5 0.193837 -2.85003 1.21616e-07
1313 1 0.933333 0.5 0.127021 -2.8512 1.68856e-06