ITEM: TIMESTEP
52
ITEM: NUMBER OF ATOMS
3200
ITEM: BOX BOUNDS pp pp ss
0.0000000000000000e+00 5.0092067021360698e+01
0.0000000000000000e+00 2.8920668379047399e+01
3.8451742731260487e-02 3.5381988531723906e+01
ITEM: ATOMS id type xs ys zs c_peratom c_csym
1 1 0 0.1 -0.00525961 -2.47714 24.5051
2 1 0.0166667 0.05 0.0603693 -2.83185 0.0049775
4 1 0 0 -0.00525961 -2.47714 24.5051
5 1 0.05 0.05 -0.00525961 -2.47714 24.5051
45 1 0.0666667 0.1 0.0603693 -2.83185 0.0049775
48 1 0.0666667 0 0.0603693 -2.83185 0.0049775
49 1 0.1 0 -0.00525961 -2.47714 24.5051
50 1 0.116667 0.05 0.0603693 -2.83185 0.0049775
66 1 0.1 0.1 -0.00525961 -2.47714 24.5051
67 1 0.15 0.05 -0.00525961 -2.47714 24.5051
155 1 0.166667 0 0.0603693 -2.83185 0.0049775
178 1 0.166667 0.1 0.0603693 -2.83185 0.0049775
179 1 0.2 0.1 -0.00525961 -2.47714 24.5051
180 1 0.216667 0.05 0.0603693 -2.83185 0.0049775
182 1 0.2 0 -0.00525961 -2.47714 24.5051
183 1 0.25 0.05 -0.00525961 -2.47714 24.5051
304 1 0.266667 0.1 0.0603693 -2.83185 0.0049775
307 1 0.266667 0 0.0603693 -2.83185 0.0049775
308 1 0.3 0 -0.00525961 -2.47714 24.5051
309 1 0.316667 0.05 0.0603693 -2.83185 0.0049775
335 1 0.3 0.1 -0.00525961 -2.47714 24.5051
336 1 0.35 0.05 -0.00525961 -2.47714 24.5051
435 1 0.366667 0 0.0603693 -2.83185 0.0049775
458 1 0.366667 0.1 0.0603693 -2.83185 0.0049775
459 1 0.4 0.1 -0.00525961 -2.47714 24.5051
460 1 0.416667 0.05 0.0603693 -2.83185 0.0049775
462 1 0.4 0 -0.00525961 -2.47714 24.5051
463 1 0.45 0.05 -0.00525961 -2.47714 24.5051
584 1 0.466667 0.1 0.0603693 -2.83185 0.0049775
587 1 0.466667 0 0.0603693 -2.83185 0.0049775
588 1 0.5 0 -0.00525961 -2.47714 24.5051
615 1 0.5 0.1 -0.00525961 -2.47714 24.5051
589 1 0.516667 0.05 0.0603693 -2.83185 0.0049775
616 1 0.55 0.05 -0.00525961 -2.47714 24.5051
715 1 0.566667 0 0.0603693 -2.83185 0.0049775
738 1 0.566667 0.1 0.0603693 -2.83185 0.0049775
739 1 0.6 0.1 -0.00525961 -2.47714 24.5051
740 1 0.616667 0.05 0.0603693 -2.83185 0.0049775
742 1 0.6 0 -0.00525961 -2.47714 24.5051
743 1 0.65 0.05 -0.00525961 -2.47714 24.5051
864 1 0.666667 0.1 0.0603693 -2.83185 0.0049775
867 1 0.666667 0 0.0603693 -2.83185 0.0049775
868 1 0.7 0 -0.00525961 -2.47714 24.5051
869 1 0.716667 0.05 0.0603693 -2.83185 0.0049775
895 1 0.7 0.1 -0.00525961 -2.47714 24.5051
896 1 0.75 0.05 -0.00525961 -2.47714 24.5051
995 1 0.766667 0 0.0603693 -2.83185 0.0049775
1018 1 0.766667 0.1 0.0603693 -2.83185 0.0049775
1019 1 0.8 0.1 -0.00525961 -2.47714 24.5051
1020 1 0.816667 0.05 0.0603693 -2.83185 0.0049775
1022 1 0.8 0 -0.00525961 -2.47714 24.5051
1023 1 0.85 0.05 -0.00525961 -2.47714 24.5051
1144 1 0.866667 0.1 0.0603693 -2.83185 0.0049775
1147 1 0.866667 0 0.0603693 -2.83185 0.0049775
1148 1 0.9 0 -0.00525961 -2.47714 24.5051
1149 1 0.916667 0.05 0.0603693 -2.83185 0.0049775
1175 1 0.9 0.1 -0.00525961 -2.47714 24.5051
1176 1 0.95 0.05 -0.00525961 -2.47714 24.5051
1275 1 0.966667 0 0.0603693 -2.83185 0.0049775
1298 1 0.966667 0.1 0.0603693 -2.83185 0.0049775
3 1 0.0166667 0.15 0.0603693 -2.83185 0.0049775
7 1 0.0166667 0.25 0.0603693 -2.83185 0.0049775
9 1 0 0.2 -0.00525961 -2.47714 24.5051
10 1 0.05 0.15 -0.00525961 -2.47714 24.5051
11 1 0.05 0.25 -0.00525961 -2.47714 24.5051
62 1 0.0666667 0.2 0.0603693 -2.83185 0.0049775
63 1 0.1 0.2 -0.00525961 -2.47714 24.5051
64 1 0.116667 0.15 0.0603693 -2.83185 0.0049775
65 1 0.116667 0.25 0.0603693 -2.83185 0.0049775
68 1 0.15 0.15 -0.00525961 -2.47714 24.5051
85 1 0.15 0.25 -0.00525961 -2.47714 24.5051
175 1 0.166667 0.2 0.0603693 -2.83185 0.0049775
181 1 0.216667 0.15 0.0603693 -2.83185 0.0049775
207 1 0.216667 0.25 0.0603693 -2.83185 0.0049775
209 1 0.2 0.2 -0.00525961 -2.47714 24.5051
210 1 0.25 0.15 -0.00525961 -2.47714 24.5051
211 1 0.25 0.25 -0.00525961 -2.47714 24.5051
331 1 0.266667 0.2 0.0603693 -2.83185 0.0049775
332 1 0.3 0.2 -0.00525961 -2.47714 24.5051
333 1 0.316667 0.15 0.0603693 -2.83185 0.0049775
334 1 0.316667 0.25 0.0603693 -2.83185 0.0049775
337 1 0.35 0.15 -0.00525961 -2.47714 24.5051
363 1 0.35 0.25 -0.00525961 -2.47714 24.5051
455 1 0.366667 0.2 0.0603693 -2.83185 0.0049775
461 1 0.416667 0.15 0.0603693 -2.83185 0.0049775
487 1 0.416667 0.25 0.0603693 -2.83185 0.0049775
489 1 0.4 0.2 -0.00525961 -2.47714 24.5051
490 1 0.45 0.15 -0.00525961 -2.47714 24.5051
491 1 0.45 0.25 -0.00525961 -2.47714 24.5051
611 1 0.466667 0.2 0.0603693 -2.83185 0.0049775
612 1 0.5 0.2 -0.00525961 -2.47714 24.5051
613 1 0.516667 0.15 0.0603693 -2.83185 0.0049775
614 1 0.516667 0.25 0.0603693 -2.83185 0.0049775
617 1 0.55 0.15 -0.00525961 -2.47714 24.5051
643 1 0.55 0.25 -0.00525961 -2.47714 24.5051
735 1 0.566667 0.2 0.0603693 -2.83185 0.0049775
741 1 0.616667 0.15 0.0603693 -2.83185 0.0049775
767 1 0.616667 0.25 0.0603693 -2.83185 0.0049775
769 1 0.6 0.2 -0.00525961 -2.47714 24.5051
770 1 0.65 0.15 -0.00525961 -2.47714 24.5051
771 1 0.65 0.25 -0.00525961 -2.47714 24.5051
891 1 0.666667 0.2 0.0603693 -2.83185 0.0049775
892 1 0.7 0.2 -0.00525961 -2.47714 24.5051
893 1 0.716667 0.15 0.0603693 -2.83185 0.0049775
894 1 0.716667 0.25 0.0603693 -2.83185 0.0049775
897 1 0.75 0.15 -0.00525961 -2.47714 24.5051
923 1 0.75 0.25 -0.00525961 -2.47714 24.5051
1015 1 0.766667 0.2 0.0603693 -2.83185 0.0049775
1021 1 0.816667 0.15 0.0603693 -2.83185 0.0049775
1047 1 0.816667 0.25 0.0603693 -2.83185 0.0049775
1049 1 0.8 0.2 -0.00525961 -2.47714 24.5051
1050 1 0.85 0.15 -0.00525961 -2.47714 24.5051
1051 1 0.85 0.25 -0.00525961 -2.47714 24.5051
1171 1 0.866667 0.2 0.0603693 -2.83185 0.0049775
1172 1 0.9 0.2 -0.00525961 -2.47714 24.5051
1173 1 0.916667 0.15 0.0603693 -2.83185 0.0049775
1174 1 0.916667 0.25 0.0603693 -2.83185 0.0049775
1177 1 0.95 0.15 -0.00525961 -2.47714 24.5051
1203 1 0.95 0.25 -0.00525961 -2.47714 24.5051
1295 1 0.966667 0.2 0.0603693 -2.83185 0.0049775
6 1 0 0.3 -0.00525961 -2.47714 24.5051
8 1 0.0166667 0.35 0.0603693 -2.83185 0.0049775
15 1 0 0.4 -0.00525961 -2.47714 24.5051
16 1 0.05 0.35 -0.00525961 -2.47714 24.5051
59 1 0.0666667 0.3 0.0603693 -2.83185 0.0049775
80 1 0.0666667 0.4 0.0603693 -2.83185 0.0049775
81 1 0.1 0.4 -0.00525961 -2.47714 24.5051
82 1 0.116667 0.35 0.0603693 -2.83185 0.0049775
84 1 0.1 0.3 -0.00525961 -2.47714 24.5051
86 1 0.15 0.35 -0.00525961 -2.47714 24.5051
202 1 0.166667 0.4 0.0603693 -2.83185 0.0049775
205 1 0.166667 0.3 0.0603693 -2.83185 0.0049775
206 1 0.2 0.3 -0.00525961 -2.47714 24.5051
208 1 0.216667 0.35 0.0603693 -2.83185 0.0049775
233 1 0.2 0.4 -0.00525961 -2.47714 24.5051
234 1 0.25 0.35 -0.00525961 -2.47714 24.5051
328 1 0.266667 0.3 0.0603693 -2.83185 0.0049775
358 1 0.266667 0.4 0.0603693 -2.83185 0.0049775
359 1 0.3 0.4 -0.00525961 -2.47714 24.5051
360 1 0.316667 0.35 0.0603693 -2.83185 0.0049775
362 1 0.3 0.3 -0.00525961 -2.47714 24.5051
364 1 0.35 0.35 -0.00525961 -2.47714 24.5051
482 1 0.366667 0.4 0.0603693 -2.83185 0.0049775
485 1 0.366667 0.3 0.0603693 -2.83185 0.0049775
486 1 0.4 0.3 -0.00525961 -2.47714 24.5051
488 1 0.416667 0.35 0.0603693 -2.83185 0.0049775
513 1 0.4 0.4 -0.00525961 -2.47714 24.5051
514 1 0.45 0.35 -0.00525961 -2.47714 24.5051
608 1 0.466667 0.3 0.0603693 -2.83185 0.0049775
638 1 0.466667 0.4 0.0603693 -2.83185 0.0049775
639 1 0.5 0.4 -0.00525961 -2.47714 24.5051
642 1 0.5 0.3 -0.00525961 -2.47714 24.5051
640 1 0.516667 0.35 0.0603693 -2.83185 0.0049775
644 1 0.55 0.35 -0.00525961 -2.47714 24.5051
762 1 0.566667 0.4 0.0603693 -2.83185 0.0049775
765 1 0.566667 0.3 0.0603693 -2.83185 0.0049775
766 1 0.6 0.3 -0.00525961 -2.47714 24.5051
768 1 0.616667 0.35 0.0603693 -2.83185 0.0049775
793 1 0.6 0.4 -0.00525961 -2.47714 24.5051
794 1 0.65 0.35 -0.00525961 -2.47714 24.5051
888 1 0.666667 0.3 0.0603693 -2.83185 0.0049775
918 1 0.666667 0.4 0.0603693 -2.83185 0.0049775
919 1 0.7 0.4 -0.00525961 -2.47714 24.5051
920 1 0.716667 0.35 0.0603693 -2.83185 0.0049775
922 1 0.7 0.3 -0.00525961 -2.47714 24.5051
924 1 0.75 0.35 -0.00525961 -2.47714 24.5051
1042 1 0.766667 0.4 0.0603693 -2.83185 0.0049775
1045 1 0.766667 0.3 0.0603693 -2.83185 0.0049775
1046 1 0.8 0.3 -0.00525961 -2.47714 24.5051
1048 1 0.816667 0.35 0.0603693 -2.83185 0.0049775
1073 1 0.8 0.4 -0.00525961 -2.47714 24.5051
1074 1 0.85 0.35 -0.00525961 -2.47714 24.5051
1168 1 0.866667 0.3 0.0603693 -2.83185 0.0049775
1198 1 0.866667 0.4 0.0603693 -2.83185 0.0049775
1199 1 0.9 0.4 -0.00525961 -2.47714 24.5051
1200 1 0.916667 0.35 0.0603693 -2.83185 0.0049775
1202 1 0.9 0.3 -0.00525961 -2.47714 24.5051
1204 1 0.95 0.35 -0.00525961 -2.47714 24.5051
1317 1 0.966667 0.4 0.0603693 -2.83185 0.0049775
1320 1 0.966667 0.3 0.0603693 -2.83185 0.0049775
12 1 0 0.5 -0.00525961 -2.47714 24.5051
13 1 0.0166667 0.45 0.0603693 -2.83185 0.0049775
14 1 0.0166667 0.55 0.0603693 -2.83185 0.0049775
17 1 0.05 0.45 -0.00525961 -2.47714 24.5051
22 1 0.05 0.55 -0.00525961 -2.47714 24.5051
77 1 0.0666667 0.5 0.0603693 -2.83185 0.0049775
83 1 0.116667 0.45 0.0603693 -2.83185 0.0049775
100 1 0.116667 0.55 0.0603693 -2.83185 0.0049775
102 1 0.1 0.5 -0.00525961 -2.47714 24.5051
103 1 0.15 0.45 -0.00525961 -2.47714 24.5051
104 1 0.15 0.55 -0.00525961 -2.47714 24.5051
229 1 0.166667 0.5 0.0603693 -2.83185 0.0049775
230 1 0.2 0.5 -0.00525961 -2.47714 24.5051
231 1 0.216667 0.45 0.0603693 -2.83185 0.0049775
232 1 0.216667 0.55 0.0603693 -2.83185 0.0049775
235 1 0.25 0.45 -0.00525961 -2.47714 24.5051
250 1 0.25 0.55 -0.00525961 -2.47714 24.5051
355 1 0.266667 0.5 0.0603693 -2.83185 0.0049775
361 1 0.316667 0.45 0.0603693 -2.83185 0.0049775
380 1 0.316667 0.55 0.0603693 -2.83185 0.0049775
382 1 0.3 0.5 -0.00525961 -2.47714 24.5051
383 1 0.35 0.45 -0.00525961 -2.47714 24.5051
384 1 0.35 0.55 -0.00525961 -2.47714 24.5051
509 1 0.366667 0.5 0.0603693 -2.83185 0.0049775
510 1 0.4 0.5 -0.00525961 -2.47714 24.5051
511 1 0.416667 0.45 0.0603693 -2.83185 0.0049775
512 1 0.416667 0.55 0.0603693 -2.83185 0.0049775
515 1 0.45 0.45 -0.00525961 -2.47714 24.5051
530 1 0.45 0.55 -0.00525961 -2.47714 24.5051
635 1 0.466667 0.5 0.0603693 -2.83185 0.0049775
662 1 0.5 0.5 -0.00525961 -2.47714 24.5051
641 1 0.516667 0.45 0.0603693 -2.83185 0.0049775
660 1 0.516667 0.55 0.0603693 -2.83185 0.0049775
663 1 0.55 0.45 -0.00525961 -2.47714 24.5051
664 1 0.55 0.55 -0.00525961 -2.47714 24.5051
789 1 0.566667 0.5 0.0603693 -2.83185 0.0049775
790 1 0.6 0.5 -0.00525961 -2.47714 24.5051
791 1 0.616667 0.45 0.0603693 -2.83185 0.0049775
792 1 0.616667 0.55 0.0603693 -2.83185 0.0049775
795 1 0.65 0.45 -0.00525961 -2.47714 24.5051
810 1 0.65 0.55 -0.00525961 -2.47714 24.5051
915 1 0.666667 0.5 0.0603693 -2.83185 0.0049775
921 1 0.716667 0.45 0.0603693 -2.83185 0.0049775
940 1 0.716667 0.55 0.0603693 -2.83185 0.0049775
942 1 0.7 0.5 -0.00525961 -2.47714 24.5051
943 1 0.75 0.45 -0.00525961 -2.47714 24.5051
944 1 0.75 0.55 -0.00525961 -2.47714 24.5051
1069 1 0.766667 0.5 0.0603693 -2.83185 0.0049775
1070 1 0.8 0.5 -0.00525961 -2.47714 24.5051
1071 1 0.816667 0.45 0.0603693 -2.83185 0.0049775
1072 1 0.816667 0.55 0.0603693 -2.83185 0.0049775
1075 1 0.85 0.45 -0.00525961 -2.47714 24.5051
1090 1 0.85 0.55 -0.00525961 -2.47714 24.5051
1195 1 0.866667 0.5 0.0603693 -2.83185 0.0049775
1201 1 0.916667 0.45 0.0603693 -2.83185 0.0049775
1220 1 0.916667 0.55 0.0603693 -2.83185 0.0049775
1222 1 0.9 0.5 -0.00525961 -2.47714 24.5051
1223 1 0.95 0.45 -0.00525961 -2.47714 24.5051
1224 1 0.95 0.55 -0.00525961 -2.47714 24.5051
1338 1 0.966667 0.5 0.0603693 -2.83185 0.0049775
18 1 0 0.7 -0.00525961 -2.47714 24.5051
19 1 0.0166667 0.65 0.0603693 -2.83185 0.0049775
21 1 0 0.6 -0.00525961 -2.47714 24.5051
23 1 0.05 0.65 -0.00525961 -2.47714 24.5051
95 1 0.0666667 0.7 0.0603693 -2.83185 0.0049775
98 1 0.0666667 0.6 0.0603693 -2.83185 0.0049775
99 1 0.1 0.6 -0.00525961 -2.47714 24.5051
101 1 0.116667 0.65 0.0603693 -2.83185 0.0049775
114 1 0.1 0.7 -0.00525961 -2.47714 24.5051
115 1 0.15 0.65 -0.00525961 -2.47714 24.5051
226 1 0.166667 0.6 0.0603693 -2.83185 0.0049775
245 1 0.166667 0.7 0.0603693 -2.83185 0.0049775
246 1 0.2 0.7 -0.00525961 -2.47714 24.5051
247 1 0.216667 0.65 0.0603693 -2.83185 0.0049775
249 1 0.2 0.6 -0.00525961 -2.47714 24.5051
251 1 0.25 0.65 -0.00525961 -2.47714 24.5051
375 1 0.266667 0.7 0.0603693 -2.83185 0.0049775
378 1 0.266667 0.6 0.0603693 -2.83185 0.0049775
379 1 0.3 0.6 -0.00525961 -2.47714 24.5051
381 1 0.316667 0.65 0.0603693 -2.83185 0.0049775
394 1 0.3 0.7 -0.00525961 -2.47714 24.5051
395 1 0.35 0.65 -0.00525961 -2.47714 24.5051
506 1 0.366667 0.6 0.0603693 -2.83185 0.0049775
525 1 0.366667 0.7 0.0603693 -2.83185 0.0049775
526 1 0.4 0.7 -0.00525961 -2.47714 24.5051
527 1 0.416667 0.65 0.0603693 -2.83185 0.0049775
529 1 0.4 0.6 -0.00525961 -2.47714 24.5051
531 1 0.45 0.65 -0.00525961 -2.47714 24.5051
655 1 0.466667 0.7 0.0603693 -2.83185 0.0049775
658 1 0.466667 0.6 0.0603693 -2.83185 0.0049775
659 1 0.5 0.6 -0.00525961 -2.47714 24.5051
674 1 0.5 0.7 -0.00525961 -2.47714 24.5051
661 1 0.516667 0.65 0.0603693 -2.83185 0.0049775
675 1 0.55 0.65 -0.00525961 -2.47714 24.5051
786 1 0.566667 0.6 0.0603693 -2.83185 0.0049775
805 1 0.566667 0.7 0.0603693 -2.83185 0.0049775
806 1 0.6 0.7 -0.00525961 -2.47714 24.5051
807 1 0.616667 0.65 0.0603693 -2.83185 0.0049775
809 1 0.6 0.6 -0.00525961 -2.47714 24.5051
811 1 0.65 0.65 -0.00525961 -2.47714 24.5051
935 1 0.666667 0.7 0.0603693 -2.83185 0.0049775
938 1 0.666667 0.6 0.0603693 -2.83185 0.0049775
939 1 0.7 0.6 -0.00525961 -2.47714 24.5051
941 1 0.716667 0.65 0.0603693 -2.83185 0.0049775
954 1 0.7 0.7 -0.00525961 -2.47714 24.5051
955 1 0.75 0.65 -0.00525961 -2.47714 24.5051
1066 1 0.766667 0.6 0.0603693 -2.83185 0.0049775
1085 1 0.766667 0.7 0.0603693 -2.83185 0.0049775
1086 1 0.8 0.7 -0.00525961 -2.47714 24.5051
1087 1 0.816667 0.65 0.0603693 -2.83185 0.0049775
1089 1 0.8 0.6 -0.00525961 -2.47714 24.5051
1091 1 0.85 0.65 -0.00525961 -2.47714 24.5051
1215 1 0.866667 0.7 0.0603693 -2.83185 0.0049775
1218 1 0.866667 0.6 0.0603693 -2.83185 0.0049775
1219 1 0.9 0.6 -0.00525961 -2.47714 24.5051
1221 1 0.916667 0.65 0.0603693 -2.83185 0.0049775
1234 1 0.9 0.7 -0.00525961 -2.47714 24.5051
1235 1 0.95 0.65 -0.00525961 -2.47714 24.5051
1335 1 0.966667 0.6 0.0603693 -2.83185 0.0049775
1348 1 0.966667 0.7 0.0603693 -2.83185 0.0049775
20 1 0.0166667 0.75 0.0603693 -2.83185 0.0049775
25 1 0.0166667 0.85 0.0603693 -2.83185 0.0049775
27 1 0 0.8 -0.00525961 -2.47714 24.5051
28 1 0.05 0.75 -0.00525961 -2.47714 24.5051
29 1 0.05 0.85 -0.00525961 -2.47714 24.5051
110 1 0.0666667 0.8 0.0603693 -2.83185 0.0049775
111 1 0.1 0.8 -0.00525961 -2.47714 24.5051
112 1 0.116667 0.75 0.0603693 -2.83185 0.0049775
113 1 0.116667 0.85 0.0603693 -2.83185 0.0049775
116 1 0.15 0.75 -0.00525961 -2.47714 24.5051
119 1 0.15 0.85 -0.00525961 -2.47714 24.5051
242 1 0.166667 0.8 0.0603693 -2.83185 0.0049775
248 1 0.216667 0.75 0.0603693 -2.83185 0.0049775
255 1 0.216667 0.85 0.0603693 -2.83185 0.0049775
257 1 0.2 0.8 -0.00525961 -2.47714 24.5051
258 1 0.25 0.75 -0.00525961 -2.47714 24.5051
259 1 0.25 0.85 -0.00525961 -2.47714 24.5051
390 1 0.266667 0.8 0.0603693 -2.83185 0.0049775
391 1 0.3 0.8 -0.00525961 -2.47714 24.5051
392 1 0.316667 0.75 0.0603693 -2.83185 0.0049775
393 1 0.316667 0.85 0.0603693 -2.83185 0.0049775
396 1 0.35 0.75 -0.00525961 -2.47714 24.5051
399 1 0.35 0.85 -0.00525961 -2.47714 24.5051
522 1 0.366667 0.8 0.0603693 -2.83185 0.0049775
528 1 0.416667 0.75 0.0603693 -2.83185 0.0049775
535 1 0.416667 0.85 0.0603693 -2.83185 0.0049775
537 1 0.4 0.8 -0.00525961 -2.47714 24.5051
538 1 0.45 0.75 -0.00525961 -2.47714 24.5051
539 1 0.45 0.85 -0.00525961 -2.47714 24.5051
670 1 0.466667 0.8 0.0603693 -2.83185 0.0049775
671 1 0.5 0.8 -0.00525961 -2.47714 24.5051
672 1 0.516667 0.75 0.0603693 -2.83185 0.0049775
673 1 0.516667 0.85 0.0603693 -2.83185 0.0049775
676 1 0.55 0.75 -0.00525961 -2.47714 24.5051
679 1 0.55 0.85 -0.00525961 -2.47714 24.5051
802 1 0.566667 0.8 0.0603693 -2.83185 0.0049775
808 1 0.616667 0.75 0.0603693 -2.83185 0.0049775
815 1 0.616667 0.85 0.0603693 -2.83185 0.0049775
817 1 0.6 0.8 -0.00525961 -2.47714 24.5051
818 1 0.65 0.75 -0.00525961 -2.47714 24.5051
819 1 0.65 0.85 -0.00525961 -2.47714 24.5051
950 1 0.666667 0.8 0.0603693 -2.83185 0.0049775
951 1 0.7 0.8 -0.00525961 -2.47714 24.5051
952 1 0.716667 0.75 0.0603693 -2.83185 0.0049775
953 1 0.716667 0.85 0.0603693 -2.83185 0.0049775
956 1 0.75 0.75 -0.00525961 -2.47714 24.5051
959 1 0.75 0.85 -0.00525961 -2.47714 24.5051
1082 1 0.766667 0.8 0.0603693 -2.83185 0.0049775
1088 1 0.816667 0.75 0.0603693 -2.83185 0.0049775
1095 1 0.816667 0.85 0.0603693 -2.83185 0.0049775
1097 1 0.8 0.8 -0.00525961 -2.47714 24.5051
1098 1 0.85 0.75 -0.00525961 -2.47714 24.5051
1099 1 0.85 0.85 -0.00525961 -2.47714 24.5051
1230 1 0.866667 0.8 0.0603693 -2.83185 0.0049775
1231 1 0.9 0.8 -0.00525961 -2.47714 24.5051
1232 1 0.916667 0.75 0.0603693 -2.83185 0.0049775
1233 1 0.916667 0.85 0.0603693 -2.83185 0.0049775
1236 1 0.95 0.75 -0.00525961 -2.47714 24.5051
1239 1 0.95 0.85 -0.00525961 -2.47714 24.5051
1345 1 0.966667 0.8 0.0603693 -2.83185 0.0049775
24 1 0 0.9 -0.00525961 -2.47714 24.5051
26 1 0.0166667 0.95 0.0603693 -2.83185 0.0049775
30 1 0.05 0.95 -0.00525961 -2.47714 24.5051
107 1 0.0666667 0.9 0.0603693 -2.83185 0.0049775
117 1 0.116667 0.95 0.0603693 -2.83185 0.0049775
118 1 0.1 0.9 -0.00525961 -2.47714 24.5051
120 1 0.15 0.95 -0.00525961 -2.47714 24.5051
253 1 0.166667 0.9 0.0603693 -2.83185 0.0049775
254 1 0.2 0.9 -0.00525961 -2.47714 24.5051
256 1 0.216667 0.95 0.0603693 -2.83185 0.0049775
260 1 0.25 0.95 -0.00525961 -2.47714 24.5051
387 1 0.266667 0.9 0.0603693 -2.83185 0.0049775
397 1 0.316667 0.95 0.0603693 -2.83185 0.0049775
398 1 0.3 0.9 -0.00525961 -2.47714 24.5051
400 1 0.35 0.95 -0.00525961 -2.47714 24.5051
533 1 0.366667 0.9 0.0603693 -2.83185 0.0049775
534 1 0.4 0.9 -0.00525961 -2.47714 24.5051
536 1 0.416667 0.95 0.0603693 -2.83185 0.0049775
540 1 0.45 0.95 -0.00525961 -2.47714 24.5051
667 1 0.466667 0.9 0.0603693 -2.83185 0.0049775
678 1 0.5 0.9 -0.00525961 -2.47714 24.5051
677 1 0.516667 0.95 0.0603693 -2.83185 0.0049775
680 1 0.55 0.95 -0.00525961 -2.47714 24.5051
813 1 0.566667 0.9 0.0603693 -2.83185 0.0049775
814 1 0.6 0.9 -0.00525961 -2.47714 24.5051
816 1 0.616667 0.95 0.0603693 -2.83185 0.0049775
820 1 0.65 0.95 -0.00525961 -2.47714 24.5051
947 1 0.666667 0.9 0.0603693 -2.83185 0.0049775
957 1 0.716667 0.95 0.0603693 -2.83185 0.0049775
958 1 0.7 0.9 -0.00525961 -2.47714 24.5051
960 1 0.75 0.95 -0.00525961 -2.47714 24.5051
1093 1 0.766667 0.9 0.0603693 -2.83185 0.0049775
1094 1 0.8 0.9 -0.00525961 -2.47714 24.5051
1096 1 0.816667 0.95 0.0603693 -2.83185 0.0049775
1100 1 0.85 0.95 -0.00525961 -2.47714 24.5051
1227 1 0.866667 0.9 0.0603693 -2.83185 0.0049775
1237 1 0.916667 0.95 0.0603693 -2.83185 0.0049775
1238 1 0.9 0.9 -0.00525961 -2.47714 24.5051
1240 1 0.95 0.95 -0.00525961 -2.47714 24.5051
1350 1 0.966667 0.9 0.0603693 -2.83185 0.0049775
31 1 0 0.1 0.193943 -2.85001 1.00276e-07
34 1 0 0 0.193943 -2.85001 1.00276e-07
35 1 0.0333333 0 0.127151 -2.8512 4.40965e-07
36 1 0.05 0.05 0.193943 -2.85001 1.00276e-07
44 1 0.0333333 0.1 0.127151 -2.8512 4.40965e-07
46 1 0.0833333 0.05 0.127151 -2.8512 4.40965e-07
135 1 0.1 0 0.193943 -2.85001 1.00276e-07
150 1 0.1 0.1 0.193943 -2.85001 1.00276e-07
151 1 0.133333 0.1 0.127151 -2.8512 4.40965e-07
152 1 0.15 0.05 0.193943 -2.85001 1.00276e-07
154 1 0.133333 0 0.127151 -2.8512 4.40965e-07
156 1 0.183333 0.05 0.127151 -2.8512 4.40965e-07
280 1 0.2 0.1 0.193943 -2.85001 1.00276e-07
283 1 0.2 0 0.193943 -2.85001 1.00276e-07
284 1 0.233333 0 0.127151 -2.8512 4.40965e-07
285 1 0.25 0.05 0.193943 -2.85001 1.00276e-07
303 1 0.233333 0.1 0.127151 -2.8512 4.40965e-07
305 1 0.283333 0.05 0.127151 -2.8512 4.40965e-07
415 1 0.3 0 0.193943 -2.85001 1.00276e-07
430 1 0.3 0.1 0.193943 -2.85001 1.00276e-07
431 1 0.333333 0.1 0.127151 -2.8512 4.40965e-07
434 1 0.333333 0 0.127151 -2.8512 4.40965e-07
432 1 0.35 0.05 0.193943 -2.85001 1.00276e-07
436 1 0.383333 0.05 0.127151 -2.8512 4.40965e-07
560 1 0.4 0.1 0.193943 -2.85001 1.00276e-07
563 1 0.4 0 0.193943 -2.85001 1.00276e-07
564 1 0.433333 0 0.127151 -2.8512 4.40965e-07
565 1 0.45 0.05 0.193943 -2.85001 1.00276e-07
583 1 0.433333 0.1 0.127151 -2.8512 4.40965e-07
585 1 0.483333 0.05 0.127151 -2.8512 4.40965e-07
695 1 0.5 0 0.193943 -2.85001 1.00276e-07
710 1 0.5 0.1 0.193943 -2.85001 1.00276e-07
711 1 0.533333 0.1 0.127151 -2.8512 4.40965e-07
712 1 0.55 0.05 0.193943 -2.85001 1.00276e-07
714 1 0.533333 0 0.127151 -2.8512 4.40965e-07
716 1 0.583333 0.05 0.127151 -2.8512 4.40965e-07
840 1 0.6 0.1 0.193943 -2.85001 1.00276e-07
843 1 0.6 0 0.193943 -2.85001 1.00276e-07
844 1 0.633333 0 0.127151 -2.8512 4.40965e-07
845 1 0.65 0.05 0.193943 -2.85001 1.00276e-07
863 1 0.633333 0.1 0.127151 -2.8512 4.40965e-07
865 1 0.683333 0.05 0.127151 -2.8512 4.40965e-07
975 1 0.7 0 0.193943 -2.85001 1.00276e-07
990 1 0.7 0.1 0.193943 -2.85001 1.00276e-07
991 1 0.733333 0.1 0.127151 -2.8512 4.40965e-07
992 1 0.75 0.05 0.193943 -2.85001 1.00276e-07
994 1 0.733333 0 0.127151 -2.8512 4.40965e-07
996 1 0.783333 0.05 0.127151 -2.8512 4.40965e-07
1120 1 0.8 0.1 0.193943 -2.85001 1.00276e-07
1123 1 0.8 0 0.193943 -2.85001 1.00276e-07
1124 1 0.833333 0 0.127151 -2.8512 4.40965e-07
1143 1 0.833333 0.1 0.127151 -2.8512 4.40965e-07
1125 1 0.85 0.05 0.193943 -2.85001 1.00276e-07
1145 1 0.883333 0.05 0.127151 -2.8512 4.40965e-07
1255 1 0.9 0 0.193943 -2.85001 1.00276e-07
1270 1 0.9 0.1 0.193943 -2.85001 1.00276e-07
1271 1 0.933333 0.1 0.127151 -2.8512 4.40965e-07
1272 1 0.95 0.05 0.193943 -2.85001 1.00276e-07
1274 1 0.933333 0 0.127151 -2.8512 4.40965e-07
1276 1 0.983333 0.05 0.127151 -2.8512 4.40965e-07
40 1 0 0.2 0.193943 -2.85001 1.00276e-07
41 1 0.0333333 0.2 0.127151 -2.8512 4.40965e-07
42 1 0.05 0.15 0.193943 -2.85001 1.00276e-07
43 1 0.05 0.25 0.193943 -2.85001 1.00276e-07
47 1 0.0833333 0.15 0.127151 -2.8512 4.40965e-07
60 1 0.0833333 0.25 0.127151 -2.8512 4.40965e-07
147 1 0.1 0.2 0.193943 -2.85001 1.00276e-07
153 1 0.15 0.15 0.193943 -2.85001 1.00276e-07
172 1 0.15 0.25 0.193943 -2.85001 1.00276e-07
174 1 0.133333 0.2 0.127151 -2.8512 4.40965e-07
176 1 0.183333 0.15 0.127151 -2.8512 4.40965e-07
177 1 0.183333 0.25 0.127151 -2.8512 4.40965e-07
299 1 0.2 0.2 0.193943 -2.85001 1.00276e-07
300 1 0.233333 0.2 0.127151 -2.8512 4.40965e-07
301 1 0.25 0.15 0.193943 -2.85001 1.00276e-07
302 1 0.25 0.25 0.193943 -2.85001 1.00276e-07
306 1 0.283333 0.15 0.127151 -2.8512 4.40965e-07
329 1 0.283333 0.25 0.127151 -2.8512 4.40965e-07
427 1 0.3 0.2 0.193943 -2.85001 1.00276e-07
454 1 0.333333 0.2 0.127151 -2.8512 4.40965e-07
433 1 0.35 0.15 0.193943 -2.85001 1.00276e-07
452 1 0.35 0.25 0.193943 -2.85001 1.00276e-07
456 1 0.383333 0.15 0.127151 -2.8512 4.40965e-07
457 1 0.383333 0.25 0.127151 -2.8512 4.40965e-07
579 1 0.4 0.2 0.193943 -2.85001 1.00276e-07
580 1 0.433333 0.2 0.127151 -2.8512 4.40965e-07
581 1 0.45 0.15 0.193943 -2.85001 1.00276e-07
582 1 0.45 0.25 0.193943 -2.85001 1.00276e-07
586 1 0.483333 0.15 0.127151 -2.8512 4.40965e-07
609 1 0.483333 0.25 0.127151 -2.8512 4.40965e-07
707 1 0.5 0.2 0.193943 -2.85001 1.00276e-07
713 1 0.55 0.15 0.193943 -2.85001 1.00276e-07
732 1 0.55 0.25 0.193943 -2.85001 1.00276e-07
734 1 0.533333 0.2 0.127151 -2.8512 4.40965e-07
736 1 0.583333 0.15 0.127151 -2.8512 4.40965e-07
737 1 0.583333 0.25 0.127151 -2.8512 4.40965e-07
859 1 0.6 0.2 0.193943 -2.85001 1.00276e-07
860 1 0.633333 0.2 0.127151 -2.8512 4.40965e-07
861 1 0.65 0.15 0.193943 -2.85001 1.00276e-07
862 1 0.65 0.25 0.193943 -2.85001 1.00276e-07
866 1 0.683333 0.15 0.127151 -2.8512 4.40965e-07
889 1 0.683333 0.25 0.127151 -2.8512 4.40965e-07
987 1 0.7 0.2 0.193943 -2.85001 1.00276e-07
993 1 0.75 0.15 0.193943 -2.85001 1.00276e-07
1012 1 0.75 0.25 0.193943 -2.85001 1.00276e-07
1014 1 0.733333 0.2 0.127151 -2.8512 4.40965e-07
1016 1 0.783333 0.15 0.127151 -2.8512 4.40965e-07
1017 1 0.783333 0.25 0.127151 -2.8512 4.40965e-07
1139 1 0.8 0.2 0.193943 -2.85001 1.00276e-07
1140 1 0.833333 0.2 0.127151 -2.8512 4.40965e-07
1141 1 0.85 0.15 0.193943 -2.85001 1.00276e-07
1142 1 0.85 0.25 0.193943 -2.85001 1.00276e-07
1146 1 0.883333 0.15 0.127151 -2.8512 4.40965e-07
1169 1 0.883333 0.25 0.127151 -2.8512 4.40965e-07
1267 1 0.9 0.2 0.193943 -2.85001 1.00276e-07
1273 1 0.95 0.15 0.193943 -2.85001 1.00276e-07
1292 1 0.95 0.25 0.193943 -2.85001 1.00276e-07
1294 1 0.933333 0.2 0.127151 -2.8512 4.40965e-07
1296 1 0.983333 0.15 0.127151 -2.8512 4.40965e-07
1297 1 0.983333 0.25 0.127151 -2.8512 4.40965e-07
37 1 0 0.3 0.193943 -2.85001 1.00276e-07
54 1 8.86546e-18 0.4 0.193943 -2.85001 1.00276e-07
55 1 0.0333333 0.4 0.127151 -2.8512 4.40965e-07
56 1 0.05 0.35 0.193943 -2.85001 1.00276e-07
58 1 0.0333333 0.3 0.127151 -2.8512 4.40965e-07
61 1 0.0833333 0.35 0.127151 -2.8512 4.40965e-07
167 1 0.1 0.4 0.193943 -2.85001 1.00276e-07
170 1 0.1 0.3 0.193943 -2.85001 1.00276e-07
171 1 0.133333 0.3 0.127151 -2.8512 4.40965e-07
173 1 0.15 0.35 0.193943 -2.85001 1.00276e-07
201 1 0.133333 0.4 0.127151 -2.8512 4.40965e-07
203 1 0.183333 0.35 0.127151 -2.8512 4.40965e-07
296 1 0.2 0.3 0.193943 -2.85001 1.00276e-07
323 1 0.2 0.4 0.193943 -2.85001 1.00276e-07
324 1 0.233333 0.4 0.127151 -2.8512 4.40965e-07
325 1 0.25 0.35 0.193943 -2.85001 1.00276e-07
327 1 0.233333 0.3 0.127151 -2.8512 4.40965e-07
330 1 0.283333 0.35 0.127151 -2.8512 4.40965e-07
447 1 0.3 0.4 0.193943 -2.85001 1.00276e-07
450 1 0.3 0.3 0.193943 -2.85001 1.00276e-07
451 1 0.333333 0.3 0.127151 -2.8512 4.40965e-07
481 1 0.333333 0.4 0.127151 -2.8512 4.40965e-07
453 1 0.35 0.35 0.193943 -2.85001 1.00276e-07
483 1 0.383333 0.35 0.127151 -2.8512 4.40965e-07
576 1 0.4 0.3 0.193943 -2.85001 1.00276e-07
603 1 0.4 0.4 0.193943 -2.85001 1.00276e-07
604 1 0.433333 0.4 0.127151 -2.8512 4.40965e-07
605 1 0.45 0.35 0.193943 -2.85001 1.00276e-07
607 1 0.433333 0.3 0.127151 -2.8512 4.40965e-07
610 1 0.483333 0.35 0.127151 -2.8512 4.40965e-07
727 1 0.5 0.4 0.193943 -2.85001 1.00276e-07
730 1 0.5 0.3 0.193943 -2.85001 1.00276e-07
731 1 0.533333 0.3 0.127151 -2.8512 4.40965e-07
733 1 0.55 0.35 0.193943 -2.85001 1.00276e-07
761 1 0.533333 0.4 0.127151 -2.8512 4.40965e-07
763 1 0.583333 0.35 0.127151 -2.8512 4.40965e-07
856 1 0.6 0.3 0.193943 -2.85001 1.00276e-07
883 1 0.6 0.4 0.193943 -2.85001 1.00276e-07
884 1 0.633333 0.4 0.127151 -2.8512 4.40965e-07
885 1 0.65 0.35 0.193943 -2.85001 1.00276e-07
887 1 0.633333 0.3 0.127151 -2.8512 4.40965e-07
890 1 0.683333 0.35 0.127151 -2.8512 4.40965e-07
1007 1 0.7 0.4 0.193943 -2.85001 1.00276e-07
1010 1 0.7 0.3 0.193943 -2.85001 1.00276e-07
1011 1 0.733333 0.3 0.127151 -2.8512 4.40965e-07
1013 1 0.75 0.35 0.193943 -2.85001 1.00276e-07
1041 1 0.733333 0.4 0.127151 -2.8512 4.40965e-07
1043 1 0.783333 0.35 0.127151 -2.8512 4.40965e-07
1136 1 0.8 0.3 0.193943 -2.85001 1.00276e-07
1163 1 0.8 0.4 0.193943 -2.85001 1.00276e-07
1164 1 0.833333 0.4 0.127151 -2.8512 4.40965e-07
1167 1 0.833333 0.3 0.127151 -2.8512 4.40965e-07
1165 1 0.85 0.35 0.193943 -2.85001 1.00276e-07
1170 1 0.883333 0.35 0.127151 -2.8512 4.40965e-07
1287 1 0.9 0.4 0.193943 -2.85001 1.00276e-07
1290 1 0.9 0.3 0.193943 -2.85001 1.00276e-07
1291 1 0.933333 0.3 0.127151 -2.8512 4.40965e-07
1293 1 0.95 0.35 0.193943 -2.85001 1.00276e-07
1316 1 0.933333 0.4 0.127151 -2.8512 4.40965e-07
1318 1 0.983333 0.35 0.127151 -2.8512 4.40965e-07
51 1 0 0.5 0.193943 -2.85001 1.00276e-07
57 1 0.05 0.45 0.193943 -2.85001 1.00276e-07
74 1 0.05 0.55 0.193943 -2.85001 1.00276e-07
76 1 0.0333333 0.5 0.127151 -2.8512 4.40965e-07
78 1 0.0833333 0.45 0.127151 -2.8512 4.40965e-07
79 1 0.0833333 0.55 0.127151 -2.8512 4.40965e-07
197 1 0.1 0.5 0.193943 -2.85001 1.00276e-07
198 1 0.133333 0.5 0.127151 -2.8512 4.40965e-07
199 1 0.15 0.45 0.193943 -2.85001 1.00276e-07
200 1 0.15 0.55 0.193943 -2.85001 1.00276e-07
204 1 0.183333 0.45 0.127151 -2.8512 4.40965e-07
227 1 0.183333 0.55 0.127151 -2.8512 4.40965e-07
320 1 0.2 0.5 0.193943 -2.85001 1.00276e-07
326 1 0.25 0.45 0.193943 -2.85001 1.00276e-07
352 1 0.25 0.55 0.193943 -2.85001 1.00276e-07
354 1 0.233333 0.5 0.127151 -2.8512 4.40965e-07
356 1 0.283333 0.45 0.127151 -2.8512 4.40965e-07
357 1 0.283333 0.55 0.127151 -2.8512 4.40965e-07
477 1 0.3 0.5 0.193943 -2.85001 1.00276e-07
478 1 0.333333 0.5 0.127151 -2.8512 4.40965e-07
479 1 0.35 0.45 0.193943 -2.85001 1.00276e-07
480 1 0.35 0.55 0.193943 -2.85001 1.00276e-07
484 1 0.383333 0.45 0.127151 -2.8512 4.40965e-07
507 1 0.383333 0.55 0.127151 -2.8512 4.40965e-07
600 1 0.4 0.5 0.193943 -2.85001 1.00276e-07
606 1 0.45 0.45 0.193943 -2.85001 1.00276e-07
632 1 0.45 0.55 0.193943 -2.85001 1.00276e-07
634 1 0.433333 0.5 0.127151 -2.8512 4.40965e-07
636 1 0.483333 0.45 0.127151 -2.8512 4.40965e-07
637 1 0.483333 0.55 0.127151 -2.8512 4.40965e-07
757 1 0.5 0.5 0.193943 -2.85001 1.00276e-07
758 1 0.533333 0.5 0.127151 -2.8512 4.40965e-07
759 1 0.55 0.45 0.193943 -2.85001 1.00276e-07
760 1 0.55 0.55 0.193943 -2.85001 1.00276e-07
764 1 0.583333 0.45 0.127151 -2.8512 4.40965e-07
787 1 0.583333 0.55 0.127151 -2.8512 4.40965e-07
880 1 0.6 0.5 0.193943 -2.85001 1.00276e-07
886 1 0.65 0.45 0.193943 -2.85001 1.00276e-07
912 1 0.65 0.55 0.193943 -2.85001 1.00276e-07
914 1 0.633333 0.5 0.127151 -2.8512 4.40965e-07
916 1 0.683333 0.45 0.127151 -2.8512 4.40965e-07
917 1 0.683333 0.55 0.127151 -2.8512 4.40965e-07
1037 1 0.7 0.5 0.193943 -2.85001 1.00276e-07
1038 1 0.733333 0.5 0.127151 -2.8512 4.40965e-07
1039 1 0.75 0.45 0.193943 -2.85001 1.00276e-07
1040 1 0.75 0.55 0.193943 -2.85001 1.00276e-07
1044 1 0.783333 0.45 0.127151 -2.8512 4.40965e-07
1067 1 0.783333 0.55 0.127151 -2.8512 4.40965e-07
1160 1 0.8 0.5 0.193943 -2.85001 1.00276e-07
1194 1 0.833333 0.5 0.127151 -2.8512 4.40965e-07
1166 1 0.85 0.45 0.193943 -2.85001 1.00276e-07
1192 1 0.85 0.55 0.193943 -2.85001 1.00276e-07
1196 1 0.883333 0.45 0.127151 -2.8512 4.40965e-07
1197 1 0.883333 0.55 0.127151 -2.8512 4.40965e-07
1312 1 0.9 0.5 0.193943 -2.85001 1.00276e-07
1313 1 0.933333 0.5 0.127151 -2.8512 4.40965e-07
1314 1 0.95 0.45 0.193943 -2.85001 1.00276e-07
1315 1 0.95 0.55 0.193943 -2.85001 1.00276e-07
1319 1 0.983333 0.45 0.127151 -2.8512 4.40965e-07
1336 1 0.983333 0.55 0.127151 -2.8512 4.40965e-07