ITEM: TIMESTEP
43
ITEM: NUMBER OF ATOMS
3200
ITEM: BOX BOUNDS pp pp ss
0.0000000000000000e+00 5.0092067021360698e+01
0.0000000000000000e+00 2.8920668379047399e+01
3.8451742731260487e-02 3.5381988531723906e+01
ITEM: ATOMS id type xs ys zs c_peratom c_csym
1 1 0 0.1 -0.00524096 -2.47612 24.6285
2 1 0.0166667 0.05 0.0606384 -2.83275 0.00392106
4 1 0 0 -0.00524096 -2.47612 24.6285
5 1 0.05 0.05 -0.00524096 -2.47612 24.6285
45 1 0.0666667 0.1 0.0606384 -2.83275 0.00392106
48 1 0.0666667 0 0.0606384 -2.83275 0.00392106
49 1 0.1 0 -0.00524096 -2.47612 24.6285
50 1 0.116667 0.05 0.0606384 -2.83275 0.00392106
66 1 0.1 0.1 -0.00524096 -2.47612 24.6285
67 1 0.15 0.05 -0.00524096 -2.47612 24.6285
155 1 0.166667 0 0.0606384 -2.83275 0.00392106
178 1 0.166667 0.1 0.0606384 -2.83275 0.00392106
179 1 0.2 0.1 -0.00524096 -2.47612 24.6285
180 1 0.216667 0.05 0.0606384 -2.83275 0.00392106
182 1 0.2 0 -0.00524096 -2.47612 24.6285
183 1 0.25 0.05 -0.00524096 -2.47612 24.6285
304 1 0.266667 0.1 0.0606384 -2.83275 0.00392106
307 1 0.266667 0 0.0606384 -2.83275 0.00392106
308 1 0.3 0 -0.00524096 -2.47612 24.6285
309 1 0.316667 0.05 0.0606384 -2.83275 0.00392106
335 1 0.3 0.1 -0.00524096 -2.47612 24.6285
336 1 0.35 0.05 -0.00524096 -2.47612 24.6285
435 1 0.366667 0 0.0606384 -2.83275 0.00392106
458 1 0.366667 0.1 0.0606384 -2.83275 0.00392106
459 1 0.4 0.1 -0.00524096 -2.47612 24.6285
460 1 0.416667 0.05 0.0606384 -2.83275 0.00392106
462 1 0.4 0 -0.00524096 -2.47612 24.6285
463 1 0.45 0.05 -0.00524096 -2.47612 24.6285
584 1 0.466667 0.1 0.0606384 -2.83275 0.00392106
587 1 0.466667 0 0.0606384 -2.83275 0.00392106
588 1 0.5 0 -0.00524096 -2.47612 24.6285
615 1 0.5 0.1 -0.00524096 -2.47612 24.6285
589 1 0.516667 0.05 0.0606384 -2.83275 0.00392106
616 1 0.55 0.05 -0.00524096 -2.47612 24.6285
715 1 0.566667 0 0.0606384 -2.83275 0.00392106
738 1 0.566667 0.1 0.0606384 -2.83275 0.00392106
739 1 0.6 0.1 -0.00524096 -2.47612 24.6285
740 1 0.616667 0.05 0.0606384 -2.83275 0.00392106
742 1 0.6 0 -0.00524096 -2.47612 24.6285
743 1 0.65 0.05 -0.00524096 -2.47612 24.6285
864 1 0.666667 0.1 0.0606384 -2.83275 0.00392106
867 1 0.666667 0 0.0606384 -2.83275 0.00392106
868 1 0.7 0 -0.00524096 -2.47612 24.6285
869 1 0.716667 0.05 0.0606384 -2.83275 0.00392106
895 1 0.7 0.1 -0.00524096 -2.47612 24.6285
896 1 0.75 0.05 -0.00524096 -2.47612 24.6285
995 1 0.766667 0 0.0606384 -2.83275 0.00392106
1018 1 0.766667 0.1 0.0606384 -2.83275 0.00392106
1019 1 0.8 0.1 -0.00524096 -2.47612 24.6285
1020 1 0.816667 0.05 0.0606384 -2.83275 0.00392106
1022 1 0.8 0 -0.00524096 -2.47612 24.6285
1023 1 0.85 0.05 -0.00524096 -2.47612 24.6285
1144 1 0.866667 0.1 0.0606384 -2.83275 0.00392106
1147 1 0.866667 0 0.0606384 -2.83275 0.00392106
1148 1 0.9 0 -0.00524096 -2.47612 24.6285
1149 1 0.916667 0.05 0.0606384 -2.83275 0.00392106
1175 1 0.9 0.1 -0.00524096 -2.47612 24.6285
1176 1 0.95 0.05 -0.00524096 -2.47612 24.6285
1275 1 0.966667 0 0.0606384 -2.83275 0.00392106
1298 1 0.966667 0.1 0.0606384 -2.83275 0.00392106
3 1 0.0166667 0.15 0.0606384 -2.83275 0.00392106
7 1 0.0166667 0.25 0.0606384 -2.83275 0.00392106
9 1 0 0.2 -0.00524096 -2.47612 24.6285
10 1 0.05 0.15 -0.00524096 -2.47612 24.6285
11 1 0.05 0.25 -0.00524096 -2.47612 24.6285
62 1 0.0666667 0.2 0.0606384 -2.83275 0.00392106
63 1 0.1 0.2 -0.00524096 -2.47612 24.6285
64 1 0.116667 0.15 0.0606384 -2.83275 0.00392106
65 1 0.116667 0.25 0.0606384 -2.83275 0.00392106
68 1 0.15 0.15 -0.00524096 -2.47612 24.6285
85 1 0.15 0.25 -0.00524096 -2.47612 24.6285
175 1 0.166667 0.2 0.0606384 -2.83275 0.00392106
181 1 0.216667 0.15 0.0606384 -2.83275 0.00392106
207 1 0.216667 0.25 0.0606384 -2.83275 0.00392106
209 1 0.2 0.2 -0.00524096 -2.47612 24.6285
210 1 0.25 0.15 -0.00524096 -2.47612 24.6285
211 1 0.25 0.25 -0.00524096 -2.47612 24.6285
331 1 0.266667 0.2 0.0606384 -2.83275 0.00392106
332 1 0.3 0.2 -0.00524096 -2.47612 24.6285
333 1 0.316667 0.15 0.0606384 -2.83275 0.00392106
334 1 0.316667 0.25 0.0606384 -2.83275 0.00392106
337 1 0.35 0.15 -0.00524096 -2.47612 24.6285
363 1 0.35 0.25 -0.00524096 -2.47612 24.6285
455 1 0.366667 0.2 0.0606384 -2.83275 0.00392106
461 1 0.416667 0.15 0.0606384 -2.83275 0.00392106
487 1 0.416667 0.25 0.0606384 -2.83275 0.00392106
489 1 0.4 0.2 -0.00524096 -2.47612 24.6285
490 1 0.45 0.15 -0.00524096 -2.47612 24.6285
491 1 0.45 0.25 -0.00524096 -2.47612 24.6285
611 1 0.466667 0.2 0.0606384 -2.83275 0.00392106
612 1 0.5 0.2 -0.00524096 -2.47612 24.6285
613 1 0.516667 0.15 0.0606384 -2.83275 0.00392106
614 1 0.516667 0.25 0.0606384 -2.83275 0.00392106
617 1 0.55 0.15 -0.00524096 -2.47612 24.6285
643 1 0.55 0.25 -0.00524096 -2.47612 24.6285
735 1 0.566667 0.2 0.0606384 -2.83275 0.00392106
741 1 0.616667 0.15 0.0606384 -2.83275 0.00392106
767 1 0.616667 0.25 0.0606384 -2.83275 0.00392106
769 1 0.6 0.2 -0.00524096 -2.47612 24.6285
770 1 0.65 0.15 -0.00524096 -2.47612 24.6285
771 1 0.65 0.25 -0.00524096 -2.47612 24.6285
891 1 0.666667 0.2 0.0606384 -2.83275 0.00392106
892 1 0.7 0.2 -0.00524096 -2.47612 24.6285
893 1 0.716667 0.15 0.0606384 -2.83275 0.00392106
894 1 0.716667 0.25 0.0606384 -2.83275 0.00392106
897 1 0.75 0.15 -0.00524096 -2.47612 24.6285
923 1 0.75 0.25 -0.00524096 -2.47612 24.6285
1015 1 0.766667 0.2 0.0606384 -2.83275 0.00392106
1021 1 0.816667 0.15 0.0606384 -2.83275 0.00392106
1047 1 0.816667 0.25 0.0606384 -2.83275 0.00392106
1049 1 0.8 0.2 -0.00524096 -2.47612 24.6285
1050 1 0.85 0.15 -0.00524096 -2.47612 24.6285
1051 1 0.85 0.25 -0.00524096 -2.47612 24.6285
1171 1 0.866667 0.2 0.0606384 -2.83275 0.00392106
1172 1 0.9 0.2 -0.00524096 -2.47612 24.6285
1173 1 0.916667 0.15 0.0606384 -2.83275 0.00392106
1174 1 0.916667 0.25 0.0606384 -2.83275 0.00392106
1177 1 0.95 0.15 -0.00524096 -2.47612 24.6285
1203 1 0.95 0.25 -0.00524096 -2.47612 24.6285
1295 1 0.966667 0.2 0.0606384 -2.83275 0.00392106
6 1 0 0.3 -0.00524096 -2.47612 24.6285
8 1 0.0166667 0.35 0.0606384 -2.83275 0.00392106
15 1 0 0.4 -0.00524096 -2.47612 24.6285
16 1 0.05 0.35 -0.00524096 -2.47612 24.6285
59 1 0.0666667 0.3 0.0606384 -2.83275 0.00392106
80 1 0.0666667 0.4 0.0606384 -2.83275 0.00392106
81 1 0.1 0.4 -0.00524096 -2.47612 24.6285
82 1 0.116667 0.35 0.0606384 -2.83275 0.00392106
84 1 0.1 0.3 -0.00524096 -2.47612 24.6285
86 1 0.15 0.35 -0.00524096 -2.47612 24.6285
202 1 0.166667 0.4 0.0606384 -2.83275 0.00392106
205 1 0.166667 0.3 0.0606384 -2.83275 0.00392106
206 1 0.2 0.3 -0.00524096 -2.47612 24.6285
208 1 0.216667 0.35 0.0606384 -2.83275 0.00392106
233 1 0.2 0.4 -0.00524096 -2.47612 24.6285
234 1 0.25 0.35 -0.00524096 -2.47612 24.6285
328 1 0.266667 0.3 0.0606384 -2.83275 0.00392106
358 1 0.266667 0.4 0.0606384 -2.83275 0.00392106
359 1 0.3 0.4 -0.00524096 -2.47612 24.6285
360 1 0.316667 0.35 0.0606384 -2.83275 0.00392106
362 1 0.3 0.3 -0.00524096 -2.47612 24.6285
364 1 0.35 0.35 -0.00524096 -2.47612 24.6285
482 1 0.366667 0.4 0.0606384 -2.83275 0.00392106
485 1 0.366667 0.3 0.0606384 -2.83275 0.00392106
486 1 0.4 0.3 -0.00524096 -2.47612 24.6285
488 1 0.416667 0.35 0.0606384 -2.83275 0.00392106
513 1 0.4 0.4 -0.00524096 -2.47612 24.6285
514 1 0.45 0.35 -0.00524096 -2.47612 24.6285
608 1 0.466667 0.3 0.0606384 -2.83275 0.00392106
638 1 0.466667 0.4 0.0606384 -2.83275 0.00392106
639 1 0.5 0.4 -0.00524096 -2.47612 24.6285
642 1 0.5 0.3 -0.00524096 -2.47612 24.6285
640 1 0.516667 0.35 0.0606384 -2.83275 0.00392106
644 1 0.55 0.35 -0.00524096 -2.47612 24.6285
762 1 0.566667 0.4 0.0606384 -2.83275 0.00392106
765 1 0.566667 0.3 0.0606384 -2.83275 0.00392106
766 1 0.6 0.3 -0.00524096 -2.47612 24.6285
768 1 0.616667 0.35 0.0606384 -2.83275 0.00392106
793 1 0.6 0.4 -0.00524096 -2.47612 24.6285
794 1 0.65 0.35 -0.00524096 -2.47612 24.6285
888 1 0.666667 0.3 0.0606384 -2.83275 0.00392106
918 1 0.666667 0.4 0.0606384 -2.83275 0.00392106
919 1 0.7 0.4 -0.00524096 -2.47612 24.6285
920 1 0.716667 0.35 0.0606384 -2.83275 0.00392106
922 1 0.7 0.3 -0.00524096 -2.47612 24.6285
924 1 0.75 0.35 -0.00524096 -2.47612 24.6285
1042 1 0.766667 0.4 0.0606384 -2.83275 0.00392106
1045 1 0.766667 0.3 0.0606384 -2.83275 0.00392106
1046 1 0.8 0.3 -0.00524096 -2.47612 24.6285
1048 1 0.816667 0.35 0.0606384 -2.83275 0.00392106
1073 1 0.8 0.4 -0.00524096 -2.47612 24.6285
1074 1 0.85 0.35 -0.00524096 -2.47612 24.6285
1168 1 0.866667 0.3 0.0606384 -2.83275 0.00392106
1198 1 0.866667 0.4 0.0606384 -2.83275 0.00392106
1199 1 0.9 0.4 -0.00524096 -2.47612 24.6285
1200 1 0.916667 0.35 0.0606384 -2.83275 0.00392106
1202 1 0.9 0.3 -0.00524096 -2.47612 24.6285
1204 1 0.95 0.35 -0.00524096 -2.47612 24.6285
1317 1 0.966667 0.4 0.0606384 -2.83275 0.00392106
1320 1 0.966667 0.3 0.0606384 -2.83275 0.00392106
12 1 0 0.5 -0.00524096 -2.47612 24.6285
13 1 0.0166667 0.45 0.0606384 -2.83275 0.00392106
14 1 0.0166667 0.55 0.0606384 -2.83275 0.00392106
17 1 0.05 0.45 -0.00524096 -2.47612 24.6285
22 1 0.05 0.55 -0.00524096 -2.47612 24.6285
77 1 0.0666667 0.5 0.0606384 -2.83275 0.00392106
83 1 0.116667 0.45 0.0606384 -2.83275 0.00392106
100 1 0.116667 0.55 0.0606384 -2.83275 0.00392106
102 1 0.1 0.5 -0.00524096 -2.47612 24.6285
103 1 0.15 0.45 -0.00524096 -2.47612 24.6285
104 1 0.15 0.55 -0.00524096 -2.47612 24.6285
229 1 0.166667 0.5 0.0606384 -2.83275 0.00392106
230 1 0.2 0.5 -0.00524096 -2.47612 24.6285
231 1 0.216667 0.45 0.0606384 -2.83275 0.00392106
232 1 0.216667 0.55 0.0606384 -2.83275 0.00392106
235 1 0.25 0.45 -0.00524096 -2.47612 24.6285
250 1 0.25 0.55 -0.00524096 -2.47612 24.6285
355 1 0.266667 0.5 0.0606384 -2.83275 0.00392106
361 1 0.316667 0.45 0.0606384 -2.83275 0.00392106
380 1 0.316667 0.55 0.0606384 -2.83275 0.00392106
382 1 0.3 0.5 -0.00524096 -2.47612 24.6285
383 1 0.35 0.45 -0.00524096 -2.47612 24.6285
384 1 0.35 0.55 -0.00524096 -2.47612 24.6285
509 1 0.366667 0.5 0.0606384 -2.83275 0.00392106
510 1 0.4 0.5 -0.00524096 -2.47612 24.6285
511 1 0.416667 0.45 0.0606384 -2.83275 0.00392106
512 1 0.416667 0.55 0.0606384 -2.83275 0.00392106
515 1 0.45 0.45 -0.00524096 -2.47612 24.6285
530 1 0.45 0.55 -0.00524096 -2.47612 24.6285
635 1 0.466667 0.5 0.0606384 -2.83275 0.00392106
662 1 0.5 0.5 -0.00524096 -2.47612 24.6285
641 1 0.516667 0.45 0.0606384 -2.83275 0.00392106
660 1 0.516667 0.55 0.0606384 -2.83275 0.00392106
663 1 0.55 0.45 -0.00524096 -2.47612 24.6285
664 1 0.55 0.55 -0.00524096 -2.47612 24.6285
789 1 0.566667 0.5 0.0606384 -2.83275 0.00392106
790 1 0.6 0.5 -0.00524096 -2.47612 24.6285
791 1 0.616667 0.45 0.0606384 -2.83275 0.00392106
792 1 0.616667 0.55 0.0606384 -2.83275 0.00392106
795 1 0.65 0.45 -0.00524096 -2.47612 24.6285
810 1 0.65 0.55 -0.00524096 -2.47612 24.6285
915 1 0.666667 0.5 0.0606384 -2.83275 0.00392106
921 1 0.716667 0.45 0.0606384 -2.83275 0.00392106
940 1 0.716667 0.55 0.0606384 -2.83275 0.00392106
942 1 0.7 0.5 -0.00524096 -2.47612 24.6285
943 1 0.75 0.45 -0.00524096 -2.47612 24.6285
944 1 0.75 0.55 -0.00524096 -2.47612 24.6285
1069 1 0.766667 0.5 0.0606384 -2.83275 0.00392106
1070 1 0.8 0.5 -0.00524096 -2.47612 24.6285
1071 1 0.816667 0.45 0.0606384 -2.83275 0.00392106
1072 1 0.816667 0.55 0.0606384 -2.83275 0.00392106
1075 1 0.85 0.45 -0.00524096 -2.47612 24.6285
1090 1 0.85 0.55 -0.00524096 -2.47612 24.6285
1195 1 0.866667 0.5 0.0606384 -2.83275 0.00392106
1201 1 0.916667 0.45 0.0606384 -2.83275 0.00392106
1220 1 0.916667 0.55 0.0606384 -2.83275 0.00392106
1222 1 0.9 0.5 -0.00524096 -2.47612 24.6285
1223 1 0.95 0.45 -0.00524096 -2.47612 24.6285
1224 1 0.95 0.55 -0.00524096 -2.47612 24.6285
1338 1 0.966667 0.5 0.0606384 -2.83275 0.00392106
18 1 0 0.7 -0.00524096 -2.47612 24.6285
19 1 0.0166667 0.65 0.0606384 -2.83275 0.00392106
21 1 0 0.6 -0.00524096 -2.47612 24.6285
23 1 0.05 0.65 -0.00524096 -2.47612 24.6285
95 1 0.0666667 0.7 0.0606384 -2.83275 0.00392106
98 1 0.0666667 0.6 0.0606384 -2.83275 0.00392106
99 1 0.1 0.6 -0.00524096 -2.47612 24.6285
101 1 0.116667 0.65 0.0606384 -2.83275 0.00392106
114 1 0.1 0.7 -0.00524096 -2.47612 24.6285
115 1 0.15 0.65 -0.00524096 -2.47612 24.6285
226 1 0.166667 0.6 0.0606384 -2.83275 0.00392106
245 1 0.166667 0.7 0.0606384 -2.83275 0.00392106
246 1 0.2 0.7 -0.00524096 -2.47612 24.6285
247 1 0.216667 0.65 0.0606384 -2.83275 0.00392106
249 1 0.2 0.6 -0.00524096 -2.47612 24.6285
251 1 0.25 0.65 -0.00524096 -2.47612 24.6285
375 1 0.266667 0.7 0.0606384 -2.83275 0.00392106
378 1 0.266667 0.6 0.0606384 -2.83275 0.00392106
379 1 0.3 0.6 -0.00524096 -2.47612 24.6285
381 1 0.316667 0.65 0.0606384 -2.83275 0.00392106
394 1 0.3 0.7 -0.00524096 -2.47612 24.6285
395 1 0.35 0.65 -0.00524096 -2.47612 24.6285
506 1 0.366667 0.6 0.0606384 -2.83275 0.00392106
525 1 0.366667 0.7 0.0606384 -2.83275 0.00392106
526 1 0.4 0.7 -0.00524096 -2.47612 24.6285
527 1 0.416667 0.65 0.0606384 -2.83275 0.00392106
529 1 0.4 0.6 -0.00524096 -2.47612 24.6285
531 1 0.45 0.65 -0.00524096 -2.47612 24.6285
655 1 0.466667 0.7 0.0606384 -2.83275 0.00392106
658 1 0.466667 0.6 0.0606384 -2.83275 0.00392106
659 1 0.5 0.6 -0.00524096 -2.47612 24.6285
674 1 0.5 0.7 -0.00524096 -2.47612 24.6285
661 1 0.516667 0.65 0.0606384 -2.83275 0.00392106
675 1 0.55 0.65 -0.00524096 -2.47612 24.6285
786 1 0.566667 0.6 0.0606384 -2.83275 0.00392106
805 1 0.566667 0.7 0.0606384 -2.83275 0.00392106
806 1 0.6 0.7 -0.00524096 -2.47612 24.6285
807 1 0.616667 0.65 0.0606384 -2.83275 0.00392106
809 1 0.6 0.6 -0.00524096 -2.47612 24.6285
811 1 0.65 0.65 -0.00524096 -2.47612 24.6285
935 1 0.666667 0.7 0.0606384 -2.83275 0.00392106
938 1 0.666667 0.6 0.0606384 -2.83275 0.00392106
939 1 0.7 0.6 -0.00524096 -2.47612 24.6285
941 1 0.716667 0.65 0.0606384 -2.83275 0.00392106
954 1 0.7 0.7 -0.00524096 -2.47612 24.6285
955 1 0.75 0.65 -0.00524096 -2.47612 24.6285
1066 1 0.766667 0.6 0.0606384 -2.83275 0.00392106
1085 1 0.766667 0.7 0.0606384 -2.83275 0.00392106
1086 1 0.8 0.7 -0.00524096 -2.47612 24.6285
1087 1 0.816667 0.65 0.0606384 -2.83275 0.00392106
1089 1 0.8 0.6 -0.00524096 -2.47612 24.6285
1091 1 0.85 0.65 -0.00524096 -2.47612 24.6285
1215 1 0.866667 0.7 0.0606384 -2.83275 0.00392106
1218 1 0.866667 0.6 0.0606384 -2.83275 0.00392106
1219 1 0.9 0.6 -0.00524096 -2.47612 24.6285
1221 1 0.916667 0.65 0.0606384 -2.83275 0.00392106
1234 1 0.9 0.7 -0.00524096 -2.47612 24.6285
1235 1 0.95 0.65 -0.00524096 -2.47612 24.6285
1335 1 0.966667 0.6 0.0606384 -2.83275 0.00392106
1348 1 0.966667 0.7 0.0606384 -2.83275 0.00392106
20 1 0.0166667 0.75 0.0606384 -2.83275 0.00392106
25 1 0.0166667 0.85 0.0606384 -2.83275 0.00392106
27 1 0 0.8 -0.00524096 -2.47612 24.6285
28 1 0.05 0.75 -0.00524096 -2.47612 24.6285
29 1 0.05 0.85 -0.00524096 -2.47612 24.6285
110 1 0.0666667 0.8 0.0606384 -2.83275 0.00392106
111 1 0.1 0.8 -0.00524096 -2.47612 24.6285
112 1 0.116667 0.75 0.0606384 -2.83275 0.00392106
113 1 0.116667 0.85 0.0606384 -2.83275 0.00392106
116 1 0.15 0.75 -0.00524096 -2.47612 24.6285
119 1 0.15 0.85 -0.00524096 -2.47612 24.6285
242 1 0.166667 0.8 0.0606384 -2.83275 0.00392106
248 1 0.216667 0.75 0.0606384 -2.83275 0.00392106
255 1 0.216667 0.85 0.0606384 -2.83275 0.00392106
257 1 0.2 0.8 -0.00524096 -2.47612 24.6285
258 1 0.25 0.75 -0.00524096 -2.47612 24.6285
259 1 0.25 0.85 -0.00524096 -2.47612 24.6285
390 1 0.266667 0.8 0.0606384 -2.83275 0.00392106
391 1 0.3 0.8 -0.00524096 -2.47612 24.6285
392 1 0.316667 0.75 0.0606384 -2.83275 0.00392106
393 1 0.316667 0.85 0.0606384 -2.83275 0.00392106
396 1 0.35 0.75 -0.00524096 -2.47612 24.6285
399 1 0.35 0.85 -0.00524096 -2.47612 24.6285
522 1 0.366667 0.8 0.0606384 -2.83275 0.00392106
528 1 0.416667 0.75 0.0606384 -2.83275 0.00392106
535 1 0.416667 0.85 0.0606384 -2.83275 0.00392106
537 1 0.4 0.8 -0.00524096 -2.47612 24.6285
538 1 0.45 0.75 -0.00524096 -2.47612 24.6285
539 1 0.45 0.85 -0.00524096 -2.47612 24.6285
670 1 0.466667 0.8 0.0606384 -2.83275 0.00392106
671 1 0.5 0.8 -0.00524096 -2.47612 24.6285
672 1 0.516667 0.75 0.0606384 -2.83275 0.00392106
673 1 0.516667 0.85 0.0606384 -2.83275 0.00392106
676 1 0.55 0.75 -0.00524096 -2.47612 24.6285
679 1 0.55 0.85 -0.00524096 -2.47612 24.6285
802 1 0.566667 0.8 0.0606384 -2.83275 0.00392106
808 1 0.616667 0.75 0.0606384 -2.83275 0.00392106
815 1 0.616667 0.85 0.0606384 -2.83275 0.00392106
817 1 0.6 0.8 -0.00524096 -2.47612 24.6285
818 1 0.65 0.75 -0.00524096 -2.47612 24.6285
819 1 0.65 0.85 -0.00524096 -2.47612 24.6285
950 1 0.666667 0.8 0.0606384 -2.83275 0.00392106
951 1 0.7 0.8 -0.00524096 -2.47612 24.6285
952 1 0.716667 0.75 0.0606384 -2.83275 0.00392106
953 1 0.716667 0.85 0.0606384 -2.83275 0.00392106
956 1 0.75 0.75 -0.00524096 -2.47612 24.6285
959 1 0.75 0.85 -0.00524096 -2.47612 24.6285
1082 1 0.766667 0.8 0.0606384 -2.83275 0.00392106
1088 1 0.816667 0.75 0.0606384 -2.83275 0.00392106
1095 1 0.816667 0.85 0.0606384 -2.83275 0.00392106
1097 1 0.8 0.8 -0.00524096 -2.47612 24.6285
1098 1 0.85 0.75 -0.00524096 -2.47612 24.6285
1099 1 0.85 0.85 -0.00524096 -2.47612 24.6285
1230 1 0.866667 0.8 0.0606384 -2.83275 0.00392106
1231 1 0.9 0.8 -0.00524096 -2.47612 24.6285
1232 1 0.916667 0.75 0.0606384 -2.83275 0.00392106
1233 1 0.916667 0.85 0.0606384 -2.83275 0.00392106
1236 1 0.95 0.75 -0.00524096 -2.47612 24.6285
1239 1 0.95 0.85 -0.00524096 -2.47612 24.6285
1345 1 0.966667 0.8 0.0606384 -2.83275 0.00392106
24 1 0 0.9 -0.00524096 -2.47612 24.6285
26 1 0.0166667 0.95 0.0606384 -2.83275 0.00392106
30 1 0.05 0.95 -0.00524096 -2.47612 24.6285
107 1 0.0666667 0.9 0.0606384 -2.83275 0.00392106
117 1 0.116667 0.95 0.0606384 -2.83275 0.00392106
118 1 0.1 0.9 -0.00524096 -2.47612 24.6285
120 1 0.15 0.95 -0.00524096 -2.47612 24.6285
253 1 0.166667 0.9 0.0606384 -2.83275 0.00392106
254 1 0.2 0.9 -0.00524096 -2.47612 24.6285
256 1 0.216667 0.95 0.0606384 -2.83275 0.00392106
260 1 0.25 0.95 -0.00524096 -2.47612 24.6285
387 1 0.266667 0.9 0.0606384 -2.83275 0.00392106
397 1 0.316667 0.95 0.0606384 -2.83275 0.00392106
398 1 0.3 0.9 -0.00524096 -2.47612 24.6285
400 1 0.35 0.95 -0.00524096 -2.47612 24.6285
533 1 0.366667 0.9 0.0606384 -2.83275 0.00392106
534 1 0.4 0.9 -0.00524096 -2.47612 24.6285
536 1 0.416667 0.95 0.0606384 -2.83275 0.00392106
540 1 0.45 0.95 -0.00524096 -2.47612 24.6285
667 1 0.466667 0.9 0.0606384 -2.83275 0.00392106
678 1 0.5 0.9 -0.00524096 -2.47612 24.6285
677 1 0.516667 0.95 0.0606384 -2.83275 0.00392106
680 1 0.55 0.95 -0.00524096 -2.47612 24.6285
813 1 0.566667 0.9 0.0606384 -2.83275 0.00392106
814 1 0.6 0.9 -0.00524096 -2.47612 24.6285
816 1 0.616667 0.95 0.0606384 -2.83275 0.00392106
820 1 0.65 0.95 -0.00524096 -2.47612 24.6285
947 1 0.666667 0.9 0.0606384 -2.83275 0.00392106
957 1 0.716667 0.95 0.0606384 -2.83275 0.00392106
958 1 0.7 0.9 -0.00524096 -2.47612 24.6285
960 1 0.75 0.95 -0.00524096 -2.47612 24.6285
1093 1 0.766667 0.9 0.0606384 -2.83275 0.00392106
1094 1 0.8 0.9 -0.00524096 -2.47612 24.6285
1096 1 0.816667 0.95 0.0606384 -2.83275 0.00392106
1100 1 0.85 0.95 -0.00524096 -2.47612 24.6285
1227 1 0.866667 0.9 0.0606384 -2.83275 0.00392106
1237 1 0.916667 0.95 0.0606384 -2.83275 0.00392106
1238 1 0.9 0.9 -0.00524096 -2.47612 24.6285
1240 1 0.95 0.95 -0.00524096 -2.47612 24.6285
1350 1 0.966667 0.9 0.0606384 -2.83275 0.00392106
31 1 0 0.1 0.194583 -2.85032 5.77835e-05
34 1 0 0 0.194583 -2.85032 5.77835e-05
35 1 0.0333333 0 0.127541 -2.85111 7.334e-05
36 1 0.05 0.05 0.194583 -2.85032 5.77835e-05
44 1 0.0333333 0.1 0.127541 -2.85111 7.334e-05
46 1 0.0833333 0.05 0.127541 -2.85111 7.334e-05
135 1 0.1 0 0.194583 -2.85032 5.77835e-05
150 1 0.1 0.1 0.194583 -2.85032 5.77835e-05
151 1 0.133333 0.1 0.127541 -2.85111 7.334e-05
152 1 0.15 0.05 0.194583 -2.85032 5.77835e-05
154 1 0.133333 0 0.127541 -2.85111 7.334e-05
156 1 0.183333 0.05 0.127541 -2.85111 7.334e-05
280 1 0.2 0.1 0.194583 -2.85032 5.77835e-05
283 1 0.2 0 0.194583 -2.85032 5.77835e-05
284 1 0.233333 0 0.127541 -2.85111 7.334e-05
285 1 0.25 0.05 0.194583 -2.85032 5.77835e-05
303 1 0.233333 0.1 0.127541 -2.85111 7.334e-05
305 1 0.283333 0.05 0.127541 -2.85111 7.334e-05
415 1 0.3 0 0.194583 -2.85032 5.77835e-05
430 1 0.3 0.1 0.194583 -2.85032 5.77835e-05
431 1 0.333333 0.1 0.127541 -2.85111 7.334e-05
434 1 0.333333 0 0.127541 -2.85111 7.334e-05
432 1 0.35 0.05 0.194583 -2.85032 5.77835e-05
436 1 0.383333 0.05 0.127541 -2.85111 7.334e-05
560 1 0.4 0.1 0.194583 -2.85032 5.77835e-05
563 1 0.4 0 0.194583 -2.85032 5.77835e-05
564 1 0.433333 0 0.127541 -2.85111 7.334e-05
565 1 0.45 0.05 0.194583 -2.85032 5.77835e-05
583 1 0.433333 0.1 0.127541 -2.85111 7.334e-05
585 1 0.483333 0.05 0.127541 -2.85111 7.334e-05
695 1 0.5 0 0.194583 -2.85032 5.77835e-05
710 1 0.5 0.1 0.194583 -2.85032 5.77835e-05
711 1 0.533333 0.1 0.127541 -2.85111 7.334e-05
712 1 0.55 0.05 0.194583 -2.85032 5.77835e-05
714 1 0.533333 0 0.127541 -2.85111 7.334e-05
716 1 0.583333 0.05 0.127541 -2.85111 7.334e-05
840 1 0.6 0.1 0.194583 -2.85032 5.77835e-05
843 1 0.6 0 0.194583 -2.85032 5.77835e-05
844 1 0.633333 0 0.127541 -2.85111 7.334e-05
845 1 0.65 0.05 0.194583 -2.85032 5.77835e-05
863 1 0.633333 0.1 0.127541 -2.85111 7.334e-05
865 1 0.683333 0.05 0.127541 -2.85111 7.334e-05
975 1 0.7 0 0.194583 -2.85032 5.77835e-05
990 1 0.7 0.1 0.194583 -2.85032 5.77835e-05
991 1 0.733333 0.1 0.127541 -2.85111 7.334e-05
992 1 0.75 0.05 0.194583 -2.85032 5.77835e-05
994 1 0.733333 0 0.127541 -2.85111 7.334e-05
996 1 0.783333 0.05 0.127541 -2.85111 7.334e-05
1120 1 0.8 0.1 0.194583 -2.85032 5.77835e-05
1123 1 0.8 0 0.194583 -2.85032 5.77835e-05
1124 1 0.833333 0 0.127541 -2.85111 7.334e-05
1143 1 0.833333 0.1 0.127541 -2.85111 7.334e-05
1125 1 0.85 0.05 0.194583 -2.85032 5.77835e-05
1145 1 0.883333 0.05 0.127541 -2.85111 7.334e-05
1255 1 0.9 0 0.194583 -2.85032 5.77835e-05
1270 1 0.9 0.1 0.194583 -2.85032 5.77835e-05
1271 1 0.933333 0.1 0.127541 -2.85111 7.334e-05
1272 1 0.95 0.05 0.194583 -2.85032 5.77835e-05
1274 1 0.933333 0 0.127541 -2.85111 7.334e-05
1276 1 0.983333 0.05 0.127541 -2.85111 7.334e-05
40 1 0 0.2 0.194583 -2.85032 5.77835e-05
41 1 0.0333333 0.2 0.127541 -2.85111 7.334e-05
42 1 0.05 0.15 0.194583 -2.85032 5.77835e-05
43 1 0.05 0.25 0.194583 -2.85032 5.77835e-05
47 1 0.0833333 0.15 0.127541 -2.85111 7.334e-05
60 1 0.0833333 0.25 0.127541 -2.85111 7.334e-05
147 1 0.1 0.2 0.194583 -2.85032 5.77835e-05
153 1 0.15 0.15 0.194583 -2.85032 5.77835e-05
172 1 0.15 0.25 0.194583 -2.85032 5.77835e-05
174 1 0.133333 0.2 0.127541 -2.85111 7.334e-05
176 1 0.183333 0.15 0.127541 -2.85111 7.334e-05
177 1 0.183333 0.25 0.127541 -2.85111 7.334e-05
299 1 0.2 0.2 0.194583 -2.85032 5.77835e-05
300 1 0.233333 0.2 0.127541 -2.85111 7.334e-05
301 1 0.25 0.15 0.194583 -2.85032 5.77835e-05
302 1 0.25 0.25 0.194583 -2.85032 5.77835e-05
306 1 0.283333 0.15 0.127541 -2.85111 7.334e-05
329 1 0.283333 0.25 0.127541 -2.85111 7.334e-05
427 1 0.3 0.2 0.194583 -2.85032 5.77835e-05
454 1 0.333333 0.2 0.127541 -2.85111 7.334e-05
433 1 0.35 0.15 0.194583 -2.85032 5.77835e-05
452 1 0.35 0.25 0.194583 -2.85032 5.77835e-05
456 1 0.383333 0.15 0.127541 -2.85111 7.334e-05
457 1 0.383333 0.25 0.127541 -2.85111 7.334e-05
579 1 0.4 0.2 0.194583 -2.85032 5.77835e-05
580 1 0.433333 0.2 0.127541 -2.85111 7.334e-05
581 1 0.45 0.15 0.194583 -2.85032 5.77835e-05
582 1 0.45 0.25 0.194583 -2.85032 5.77835e-05
586 1 0.483333 0.15 0.127541 -2.85111 7.334e-05
609 1 0.483333 0.25 0.127541 -2.85111 7.334e-05
707 1 0.5 0.2 0.194583 -2.85032 5.77835e-05
713 1 0.55 0.15 0.194583 -2.85032 5.77835e-05
732 1 0.55 0.25 0.194583 -2.85032 5.77835e-05
734 1 0.533333 0.2 0.127541 -2.85111 7.334e-05
736 1 0.583333 0.15 0.127541 -2.85111 7.334e-05
737 1 0.583333 0.25 0.127541 -2.85111 7.334e-05
859 1 0.6 0.2 0.194583 -2.85032 5.77835e-05
860 1 0.633333 0.2 0.127541 -2.85111 7.334e-05
861 1 0.65 0.15 0.194583 -2.85032 5.77835e-05
862 1 0.65 0.25 0.194583 -2.85032 5.77835e-05
866 1 0.683333 0.15 0.127541 -2.85111 7.334e-05
889 1 0.683333 0.25 0.127541 -2.85111 7.334e-05
987 1 0.7 0.2 0.194583 -2.85032 5.77835e-05
993 1 0.75 0.15 0.194583 -2.85032 5.77835e-05
1012 1 0.75 0.25 0.194583 -2.85032 5.77835e-05
1014 1 0.733333 0.2 0.127541 -2.85111 7.334e-05
1016 1 0.783333 0.15 0.127541 -2.85111 7.334e-05
1017 1 0.783333 0.25 0.127541 -2.85111 7.334e-05
1139 1 0.8 0.2 0.194583 -2.85032 5.77835e-05
1140 1 0.833333 0.2 0.127541 -2.85111 7.334e-05
1141 1 0.85 0.15 0.194583 -2.85032 5.77835e-05
1142 1 0.85 0.25 0.194583 -2.85032 5.77835e-05
1146 1 0.883333 0.15 0.127541 -2.85111 7.334e-05
1169 1 0.883333 0.25 0.127541 -2.85111 7.334e-05
1267 1 0.9 0.2 0.194583 -2.85032 5.77835e-05
1273 1 0.95 0.15 0.194583 -2.85032 5.77835e-05
1292 1 0.95 0.25 0.194583 -2.85032 5.77835e-05
1294 1 0.933333 0.2 0.127541 -2.85111 7.334e-05
1296 1 0.983333 0.15 0.127541 -2.85111 7.334e-05
1297 1 0.983333 0.25 0.127541 -2.85111 7.334e-05
37 1 0 0.3 0.194583 -2.85032 5.77835e-05
54 1 8.86546e-18 0.4 0.194583 -2.85032 5.77835e-05
55 1 0.0333333 0.4 0.127541 -2.85111 7.334e-05
56 1 0.05 0.35 0.194583 -2.85032 5.77835e-05
58 1 0.0333333 0.3 0.127541 -2.85111 7.334e-05
61 1 0.0833333 0.35 0.127541 -2.85111 7.334e-05
167 1 0.1 0.4 0.194583 -2.85032 5.77835e-05
170 1 0.1 0.3 0.194583 -2.85032 5.77835e-05
171 1 0.133333 0.3 0.127541 -2.85111 7.334e-05
173 1 0.15 0.35 0.194583 -2.85032 5.77835e-05
201 1 0.133333 0.4 0.127541 -2.85111 7.334e-05
203 1 0.183333 0.35 0.127541 -2.85111 7.334e-05
296 1 0.2 0.3 0.194583 -2.85032 5.77835e-05
323 1 0.2 0.4 0.194583 -2.85032 5.77835e-05
324 1 0.233333 0.4 0.127541 -2.85111 7.334e-05
325 1 0.25 0.35 0.194583 -2.85032 5.77835e-05
327 1 0.233333 0.3 0.127541 -2.85111 7.334e-05
330 1 0.283333 0.35 0.127541 -2.85111 7.334e-05
447 1 0.3 0.4 0.194583 -2.85032 5.77835e-05
450 1 0.3 0.3 0.194583 -2.85032 5.77835e-05
451 1 0.333333 0.3 0.127541 -2.85111 7.334e-05
481 1 0.333333 0.4 0.127541 -2.85111 7.334e-05
453 1 0.35 0.35 0.194583 -2.85032 5.77835e-05
483 1 0.383333 0.35 0.127541 -2.85111 7.334e-05
576 1 0.4 0.3 0.194583 -2.85032 5.77835e-05
603 1 0.4 0.4 0.194583 -2.85032 5.77835e-05
604 1 0.433333 0.4 0.127541 -2.85111 7.334e-05
605 1 0.45 0.35 0.194583 -2.85032 5.77835e-05
607 1 0.433333 0.3 0.127541 -2.85111 7.334e-05
610 1 0.483333 0.35 0.127541 -2.85111 7.334e-05
727 1 0.5 0.4 0.194583 -2.85032 5.77835e-05
730 1 0.5 0.3 0.194583 -2.85032 5.77835e-05
731 1 0.533333 0.3 0.127541 -2.85111 7.334e-05
733 1 0.55 0.35 0.194583 -2.85032 5.77835e-05
761 1 0.533333 0.4 0.127541 -2.85111 7.334e-05
763 1 0.583333 0.35 0.127541 -2.85111 7.334e-05
856 1 0.6 0.3 0.194583 -2.85032 5.77835e-05
883 1 0.6 0.4 0.194583 -2.85032 5.77835e-05
884 1 0.633333 0.4 0.127541 -2.85111 7.334e-05
885 1 0.65 0.35 0.194583 -2.85032 5.77835e-05
887 1 0.633333 0.3 0.127541 -2.85111 7.334e-05
890 1 0.683333 0.35 0.127541 -2.85111 7.334e-05
1007 1 0.7 0.4 0.194583 -2.85032 5.77835e-05
1010 1 0.7 0.3 0.194583 -2.85032 5.77835e-05
1011 1 0.733333 0.3 0.127541 -2.85111 7.334e-05
1013 1 0.75 0.35 0.194583 -2.85032 5.77835e-05
1041 1 0.733333 0.4 0.127541 -2.85111 7.334e-05
1043 1 0.783333 0.35 0.127541 -2.85111 7.334e-05
1136 1 0.8 0.3 0.194583 -2.85032 5.77835e-05
1163 1 0.8 0.4 0.194583 -2.85032 5.77835e-05
1164 1 0.833333 0.4 0.127541 -2.85111 7.334e-05
1167 1 0.833333 0.3 0.127541 -2.85111 7.334e-05
1165 1 0.85 0.35 0.194583 -2.85032 5.77835e-05
1170 1 0.883333 0.35 0.127541 -2.85111 7.334e-05
1287 1 0.9 0.4 0.194583 -2.85032 5.77835e-05
1290 1 0.9 0.3 0.194583 -2.85032 5.77835e-05
1291 1 0.933333 0.3 0.127541 -2.85111 7.334e-05
1293 1 0.95 0.35 0.194583 -2.85032 5.77835e-05
1316 1 0.933333 0.4 0.127541 -2.85111 7.334e-05
1318 1 0.983333 0.35 0.127541 -2.85111 7.334e-05
51 1 0 0.5 0.194583 -2.85032 5.77835e-05
57 1 0.05 0.45 0.194583 -2.85032 5.77835e-05
74 1 0.05 0.55 0.194583 -2.85032 5.77835e-05
76 1 0.0333333 0.5 0.127541 -2.85111 7.334e-05
78 1 0.0833333 0.45 0.127541 -2.85111 7.334e-05
79 1 0.0833333 0.55 0.127541 -2.85111 7.334e-05
197 1 0.1 0.5 0.194583 -2.85032 5.77835e-05
198 1 0.133333 0.5 0.127541 -2.85111 7.334e-05
199 1 0.15 0.45 0.194583 -2.85032 5.77835e-05
200 1 0.15 0.55 0.194583 -2.85032 5.77835e-05
204 1 0.183333 0.45 0.127541 -2.85111 7.334e-05
227 1 0.183333 0.55 0.127541 -2.85111 7.334e-05
320 1 0.2 0.5 0.194583 -2.85032 5.77835e-05
326 1 0.25 0.45 0.194583 -2.85032 5.77835e-05
352 1 0.25 0.55 0.194583 -2.85032 5.77835e-05
354 1 0.233333 0.5 0.127541 -2.85111 7.334e-05
356 1 0.283333 0.45 0.127541 -2.85111 7.334e-05
357 1 0.283333 0.55 0.127541 -2.85111 7.334e-05
477 1 0.3 0.5 0.194583 -2.85032 5.77835e-05
478 1 0.333333 0.5 0.127541 -2.85111 7.334e-05
479 1 0.35 0.45 0.194583 -2.85032 5.77835e-05
480 1 0.35 0.55 0.194583 -2.85032 5.77835e-05
484 1 0.383333 0.45 0.127541 -2.85111 7.334e-05
507 1 0.383333 0.55 0.127541 -2.85111 7.334e-05
600 1 0.4 0.5 0.194583 -2.85032 5.77835e-05
606 1 0.45 0.45 0.194583 -2.85032 5.77835e-05
632 1 0.45 0.55 0.194583 -2.85032 5.77835e-05
634 1 0.433333 0.5 0.127541 -2.85111 7.334e-05
636 1 0.483333 0.45 0.127541 -2.85111 7.334e-05
637 1 0.483333 0.55 0.127541 -2.85111 7.334e-05
757 1 0.5 0.5 0.194583 -2.85032 5.77835e-05
758 1 0.533333 0.5 0.127541 -2.85111 7.334e-05
759 1 0.55 0.45 0.194583 -2.85032 5.77835e-05
760 1 0.55 0.55 0.194583 -2.85032 5.77835e-05
764 1 0.583333 0.45 0.127541 -2.85111 7.334e-05
787 1 0.583333 0.55 0.127541 -2.85111 7.334e-05
880 1 0.6 0.5 0.194583 -2.85032 5.77835e-05
886 1 0.65 0.45 0.194583 -2.85032 5.77835e-05
912 1 0.65 0.55 0.194583 -2.85032 5.77835e-05
914 1 0.633333 0.5 0.127541 -2.85111 7.334e-05
916 1 0.683333 0.45 0.127541 -2.85111 7.334e-05
917 1 0.683333 0.55 0.127541 -2.85111 7.334e-05
1037 1 0.7 0.5 0.194583 -2.85032 5.77835e-05
1038 1 0.733333 0.5 0.127541 -2.85111 7.334e-05
1039 1 0.75 0.45 0.194583 -2.85032 5.77835e-05
1040 1 0.75 0.55 0.194583 -2.85032 5.77835e-05
1044 1 0.783333 0.45 0.127541 -2.85111 7.334e-05
1067 1 0.783333 0.55 0.127541 -2.85111 7.334e-05
1160 1 0.8 0.5 0.194583 -2.85032 5.77835e-05
1194 1 0.833333 0.5 0.127541 -2.85111 7.334e-05
1166 1 0.85 0.45 0.194583 -2.85032 5.77835e-05
1192 1 0.85 0.55 0.194583 -2.85032 5.77835e-05
1196 1 0.883333 0.45 0.127541 -2.85111 7.334e-05
1197 1 0.883333 0.55 0.127541 -2.85111 7.334e-05
1312 1 0.9 0.5 0.194583 -2.85032 5.77835e-05
1313 1 0.933333 0.5 0.127541 -2.85111 7.334e-05
1314 1 0.95 0.45 0.194583 -2.85032 5.77835e-05
1315 1 0.95 0.55 0.194583 -2.85032 5.77835e-05