LAMMPS (2 Aug 2023 - Update 3)
# Compute elastic constant tensor for a crystal
#
# Written by Aidan Thompson (Sandia, athomps@sandia.gov)
#
#  This script uses the following three include files.
#
#   init.mod      (must be modified for different crystal structures)
# 	       	  Define units, deformation parameters and initial
#		  configuration of the atoms and simulation cell.
#
#
#   potential.mod    (must be modified for different pair styles)
# 		     Define pair style and other attributes
#		     not stored in restart file
#
#
#   displace.mod    (displace.mod should not need to be modified)
# 		    Perform positive and negative box displacements
# 		    in direction ${dir} and size ${up}.
# 		    It uses the resultant changes
#		    in stress to compute one
# 		    row of the elastic stiffness tensor
#
#		    Inputs variables:
#		    	   dir = the Voigt deformation component
#		    		    (1,2,3,4,5,6)
#		    Global constants:
#       	    	   up = the deformation magnitude (strain units)
#       		   cfac = conversion from LAMMPS pressure units to
#               	   output units for elastic constants
#
#
#  To run this on a different system, it should only be necessary to
#  modify the files init.mod and potential.mod. In order to calculate
#  the elastic constants correctly, care must be taken to specify
#  the correct units in init.mod (units, cfac and cunits). It is also
#  important to verify that the minimization of energy w.r.t atom
#  positions in the deformed cell is fully converged.
#  One indication of this is that the elastic constants are insensitive
#  to the choice of the variable ${up} in init.mod. Another is to check
#  the final max and two-norm forces reported in the log file. If you know
#  that minimization is not required, you can set maxiter = 0.0 in
#  init.mod.
#

include init.mod
# NOTE: This script can be modified for different atomic structures,
# units, etc. See in.elastic for more info.
#

# Define the finite deformation size. Try several values of this
# variable to verify that results do not depend on it.
variable up equal 1.0e-5 ##1.0e-6 #

# Define the amount of random jiggle for atoms
# This prevents atoms from staying on saddle points
variable atomjiggle equal 1.0e-5

# Uncomment one of these blocks, depending on what units
# you are using in LAMMPS and for output

# metal units, elastic constants in eV/A^3
#units		metal
#variable cfac equal 6.2414e-7
#variable cunits string eV/A^3

# metal units, elastic constants in GPa
units		metal
variable cfac equal 1.0e-4
variable cunits string GPa

# real units, elastic constants in GPa
#units		real
#variable cfac equal 1.01325e-4
#variable cunits string GPa

# Define minimization parameters
variable etol equal 0.0
variable ftol equal 1.0e-10
variable maxiter equal 10000
variable maxeval equal 50000
variable dmax equal 1.0e-2

variable 	latt0 equal 4.09000014545435  #### provide the lattice constant from your calculation
#variable 	lblock	equal 10

# generate the box and atom positions using a diamond lattice
variable a equal 3.52

boundary	p p p

#lattice         diamond $a
#region		box prism 0 2.0 0 3.0 0 4.0 0.0 0.0 0.0
#create_box	1 box
#create_atoms	1 box
lattice		fcc  ${latt0}  orient  x  1  0  0  orient  y  0  1  0  orient  z  0  0  1  origin  0.0    0.0    0.0
lattice		fcc  4.09000014545435  orient  x  1  0  0  orient  y  0  1  0  orient  z  0  0  1  origin  0.0    0.0    0.0
Lattice spacing in x,y,z = 4.0900001 4.0900001 4.0900001
region		box prism 0 2.0 0 3.0 0 4.0 0.0 0.0 0.0
create_box	1 box
Created triclinic box = (0 0 0) to (8.1800003 12.27 16.360001) with tilt (0 0 0)
  1 by 1 by 1 MPI processor grid
create_atoms	1 box
Created 96 atoms
  using lattice units in triclinic box = (0 0 0) to (8.1800003 12.27 16.360001) with tilt (0 0 0)
  create_atoms CPU = 0.000 seconds
#region          sim_region  block  0  ${lblock}  0  ${lblock}  0  ${lblock}  units  lattice
#create_box      1  sim_region
#create_atoms	1  box

# Need to set mass to something, just to satisfy LAMMPS
mass 1 1.0e-20

include potential.mod
# NOTE: This script can be modified for different pair styles
# See in.elastic for more info.

#Provide potential
pair_style      eam/alloy ### TYPE OF POTENTIAL (eam (OR) eam/alloy)
pair_coeff      *  *  CuAg.eam.alloy Ag ### POTENTIAL FILENAME

# Setup neighbor style
neighbor 1.0 nsq
neigh_modify once no every 1 delay 0 check yes

# Setup minimization style
min_style	     cg
min_modify	     dmax ${dmax} line quadratic
min_modify	     dmax 0.01 line quadratic

# Setup output
thermo		10
thermo_style custom step temp pe press pxx pyy pzz pxy pxz pyz lx ly lz vol fnorm
thermo_modify norm no

# Compute initial state
fix 3 all box/relax  aniso 0.0
minimize ${etol} ${ftol} ${maxiter} ${maxeval}
minimize 0 ${ftol} ${maxiter} ${maxeval}
minimize 0 1e-10 ${maxiter} ${maxeval}
minimize 0 1e-10 10000 ${maxeval}
minimize 0 1e-10 10000 50000
Neighbor list info ...
  update: every = 1 steps, delay = 0 steps, check = yes
  max neighbors/atom: 2000, page size: 100000
  master list distance cutoff = 6.995011
  ghost atom cutoff = 6.995011
  1 neighbor lists, perpetual/occasional/extra = 1 0 0
  (1) pair eam/alloy, perpetual
      attributes: half, newton on
      pair build: half/nsq/newton
      stencil: none
      bin: none
WARNING: Energy due to 3 extra global DOFs will be included in minimizer energies
 (../min.cpp:228)
Per MPI rank memory allocation (min/avg/max) = 4.452 | 4.452 | 4.452 Mbytes
   Step          Temp          PotEng         Press           Pxx            Pyy            Pzz            Pxy            Pxz            Pyz             Lx             Ly             Lz           Volume         Fnorm     
         0   0             -273.6         -3.1611569e-09 -3.1559572e-09 -3.149532e-09  -3.1779816e-09  1.4109678e-11 -2.2274876e-12  1.7467836e-12  8.1800003      12.27          16.360001      1642.0305      7.9708436e-14
         1   0             -273.6         -4.5321473e-10 -4.7725445e-10 -4.262829e-10  -4.5610686e-10  2.9586993e-12  6.4658074e-13 -3.1753546e-12  8.1800003      12.27          16.360001      1642.0305      7.5108792e-14
Loop time of 0.000733485 on 1 procs for 1 steps with 96 atoms

83.7% CPU use with 1 MPI tasks x no OpenMP threads

Minimization stats:
  Stopping criterion = force tolerance
  Energy initial, next-to-last, final = 
     -273.599997573215  -273.599997573215  -273.599997573215
  Force two-norm initial, final = 5.6120893e-12 8.0886798e-13
  Force max component initial, final = 3.2570335e-12 4.891261e-13
  Final line search alpha, max atom move = 1 4.891261e-13
  Iterations, force evaluations = 1 2

MPI task timing breakdown:
Section |  min time  |  avg time  |  max time  |%varavg| %total
---------------------------------------------------------------
Pair    | 0.00065208 | 0.00065208 | 0.00065208 |   0.0 | 88.90
Neigh   | 0          | 0          | 0          |   0.0 |  0.00
Comm    | 1.5668e-05 | 1.5668e-05 | 1.5668e-05 |   0.0 |  2.14
Output  | 0          | 0          | 0          |   0.0 |  0.00
Modify  | 0          | 0          | 0          |   0.0 |  0.00
Other   |            | 6.574e-05  |            |       |  8.96

Nlocal:             96 ave          96 max          96 min
Histogram: 1 0 0 0 0 0 0 0 0 0
Nghost:            976 ave         976 max         976 min
Histogram: 1 0 0 0 0 0 0 0 0 0
Neighs:           3744 ave        3744 max        3744 min
Histogram: 1 0 0 0 0 0 0 0 0 0

Total # of neighbors = 3744
Ave neighs/atom = 39
Neighbor list builds = 0
Dangerous builds = 0

variable tmp equal pxx
variable pxx0 equal ${tmp}
variable pxx0 equal -4.77254446785253e-10
variable tmp equal pyy
variable pyy0 equal ${tmp}
variable pyy0 equal -4.262828959717e-10
variable tmp equal pzz
variable pzz0 equal ${tmp}
variable pzz0 equal -4.56106855768964e-10
variable tmp equal pyz
variable pyz0 equal ${tmp}
variable pyz0 equal -3.17535462994707e-12
variable tmp equal pxz
variable pxz0 equal ${tmp}
variable pxz0 equal 6.46580740213103e-13
variable tmp equal pxy
variable pxy0 equal ${tmp}
variable pxy0 equal 2.95869930338352e-12

variable tmp equal lx
variable lx0 equal ${tmp}
variable lx0 equal 8.18000029090869
variable tmp equal ly
variable ly0 equal ${tmp}
variable ly0 equal 12.270000436363
variable tmp equal lz
variable lz0 equal ${tmp}
variable lz0 equal 16.3600005818174

# These formulas define the derivatives w.r.t. strain components
# Constants uses $, variables use v_
variable d1 equal -(v_pxx1-${pxx0})/(v_delta/v_len0)*${cfac}
variable d1 equal -(v_pxx1--4.77254446785253e-10)/(v_delta/v_len0)*${cfac}
variable d1 equal -(v_pxx1--4.77254446785253e-10)/(v_delta/v_len0)*0.0001
variable d2 equal -(v_pyy1-${pyy0})/(v_delta/v_len0)*${cfac}
variable d2 equal -(v_pyy1--4.262828959717e-10)/(v_delta/v_len0)*${cfac}
variable d2 equal -(v_pyy1--4.262828959717e-10)/(v_delta/v_len0)*0.0001
variable d3 equal -(v_pzz1-${pzz0})/(v_delta/v_len0)*${cfac}
variable d3 equal -(v_pzz1--4.56106855768964e-10)/(v_delta/v_len0)*${cfac}
variable d3 equal -(v_pzz1--4.56106855768964e-10)/(v_delta/v_len0)*0.0001
variable d4 equal -(v_pyz1-${pyz0})/(v_delta/v_len0)*${cfac}
variable d4 equal -(v_pyz1--3.17535462994707e-12)/(v_delta/v_len0)*${cfac}
variable d4 equal -(v_pyz1--3.17535462994707e-12)/(v_delta/v_len0)*0.0001
variable d5 equal -(v_pxz1-${pxz0})/(v_delta/v_len0)*${cfac}
variable d5 equal -(v_pxz1-6.46580740213103e-13)/(v_delta/v_len0)*${cfac}
variable d5 equal -(v_pxz1-6.46580740213103e-13)/(v_delta/v_len0)*0.0001
variable d6 equal -(v_pxy1-${pxy0})/(v_delta/v_len0)*${cfac}
variable d6 equal -(v_pxy1-2.95869930338352e-12)/(v_delta/v_len0)*${cfac}
variable d6 equal -(v_pxy1-2.95869930338352e-12)/(v_delta/v_len0)*0.0001

displace_atoms all random ${atomjiggle} ${atomjiggle} ${atomjiggle} 87287 units box
displace_atoms all random 1e-05 ${atomjiggle} ${atomjiggle} 87287 units box
displace_atoms all random 1e-05 1e-05 ${atomjiggle} 87287 units box
displace_atoms all random 1e-05 1e-05 1e-05 87287 units box
Displacing atoms ...

# Write restart
unfix 3
write_restart restart.equil
System init for write_restart ...

# uxx Perturbation

variable dir equal 1
include displace.mod
# NOTE: This script should not need to be
# modified. See in.elastic for more info.
#
# Find which reference length to use

if "${dir} == 1" then    "variable len0 equal ${lx0}"
variable len0 equal ${lx0}
variable len0 equal 8.18000029090869
if "${dir} == 2" then    "variable len0 equal ${ly0}"
if "${dir} == 3" then    "variable len0 equal ${lz0}"
if "${dir} == 4" then    "variable len0 equal ${lz0}"
if "${dir} == 5" then    "variable len0 equal ${lz0}"
if "${dir} == 6" then    "variable len0 equal ${ly0}"

# Reset box and simulation parameters

clear
box tilt large

The 'box' command has been removed and will be ignored

read_restart restart.equil
Reading restart file ...
  restart file = 2 Aug 2023, LAMMPS = 2 Aug 2023
  restoring atom style atomic from restart
  triclinic box = (4.1383628e-15 6.1949063e-15 8.3344861e-15) to (8.1800003 12.27 16.360001) with tilt (0 0 0)
  1 by 1 by 1 MPI processor grid
  pair style eam/alloy stores no restart info
  96 atoms
  read_restart CPU = 0.001 seconds
include potential.mod
# NOTE: This script can be modified for different pair styles
# See in.elastic for more info.

#Provide potential
pair_style      eam/alloy ### TYPE OF POTENTIAL (eam (OR) eam/alloy)
pair_coeff      *  *  CuAg.eam.alloy Ag ### POTENTIAL FILENAME

# Setup neighbor style
neighbor 1.0 nsq
neigh_modify once no every 1 delay 0 check yes

# Setup minimization style
min_style	     cg
min_modify	     dmax ${dmax} line quadratic
min_modify	     dmax 0.01 line quadratic

# Setup output
thermo		10
thermo_style custom step temp pe press pxx pyy pzz pxy pxz pyz lx ly lz vol fnorm
thermo_modify norm no

# Negative deformation

variable delta equal -${up}*${len0}
variable delta equal -1e-05*${len0}
variable delta equal -1e-05*8.18000029090869
variable deltaxy equal -${up}*xy
variable deltaxy equal -1e-05*xy
variable deltaxz equal -${up}*xz
variable deltaxz equal -1e-05*xz
variable deltayz equal -${up}*yz
variable deltayz equal -1e-05*yz
if "${dir} == 1" then    "change_box all x delta 0 ${delta} xy delta ${deltaxy} xz delta ${deltaxz} remap units box"
change_box all x delta 0 ${delta} xy delta ${deltaxy} xz delta ${deltaxz} remap units box
change_box all x delta 0 -8.18000029090869e-05 xy delta ${deltaxy} xz delta ${deltaxz} remap units box
change_box all x delta 0 -8.18000029090869e-05 xy delta -0 xz delta ${deltaxz} remap units box
change_box all x delta 0 -8.18000029090869e-05 xy delta -0 xz delta -0 remap units box
Changing box ...
  triclinic box = (4.1383628e-15 6.1949063e-15 8.3344861e-15) to (8.1799185 12.27 16.360001) with tilt (0 0 0)
  triclinic box = (4.1383628e-15 6.1949063e-15 8.3344861e-15) to (8.1799185 12.27 16.360001) with tilt (0 0 0)
  triclinic box = (4.1383628e-15 6.1949063e-15 8.3344861e-15) to (8.1799185 12.27 16.360001) with tilt (0 0 0)
if "${dir} == 2" then    "change_box all y delta 0 ${delta} yz delta ${deltayz} remap units box"
if "${dir} == 3" then    "change_box all z delta 0 ${delta} remap units box"
if "${dir} == 4" then    "change_box all yz delta ${delta} remap units box"
if "${dir} == 5" then    "change_box all xz delta ${delta} remap units box"
if "${dir} == 6" then    "change_box all xy delta ${delta} remap units box"

# Relax atoms positions

minimize ${etol} ${ftol} ${maxiter} ${maxeval}
minimize 0 ${ftol} ${maxiter} ${maxeval}
minimize 0 1e-10 ${maxiter} ${maxeval}
minimize 0 1e-10 10000 ${maxeval}
minimize 0 1e-10 10000 50000
Neighbor list info ...
  update: every = 1 steps, delay = 0 steps, check = yes
  max neighbors/atom: 2000, page size: 100000
  master list distance cutoff = 6.995011
  ghost atom cutoff = 6.995011
  1 neighbor lists, perpetual/occasional/extra = 1 0 0
  (1) pair eam/alloy, perpetual
      attributes: half, newton on
      pair build: half/nsq/newton
      stencil: none
      bin: none
Per MPI rank memory allocation (min/avg/max) = 4.448 | 4.448 | 4.448 Mbytes
   Step          Temp          PotEng         Press           Pxx            Pyy            Pzz            Pxy            Pxz            Pyz             Lx             Ly             Lz           Volume         Fnorm     
         1   0             -273.6          10.399828      12.424159      9.3876634      9.3876626     -6.1770145e-07 -2.2116383e-06  4.998931e-06   8.1799185      12.27          16.360001      1642.0141      0.00059605009
        10   0             -273.6          10.399735      12.424066      9.387569       9.387569      -7.6708178e-12  6.4646963e-12 -3.1976899e-11  8.1799185      12.27          16.360001      1642.0141      1.43936e-06  
        20   0             -273.6          10.399735      12.424066      9.387569       9.387569      -8.9904396e-12  5.1305972e-13 -4.1786274e-13  8.1799185      12.27          16.360001      1642.0141      4.70986e-09  
        26   0             -273.6          10.399735      12.424066      9.387569       9.387569      -5.7202656e-12 -8.6814934e-13 -5.5920283e-12  8.1799185      12.27          16.360001      1642.0141      4.6547584e-11
Loop time of 0.011018 on 1 procs for 25 steps with 96 atoms

100.0% CPU use with 1 MPI tasks x no OpenMP threads

Minimization stats:
  Stopping criterion = force tolerance
  Energy initial, next-to-last, final = 
     -273.599997484077  -273.599997509555  -273.599997509555
  Force two-norm initial, final = 0.00059605009 4.6547584e-11
  Force max component initial, final = 9.678554e-05 7.2662779e-12
  Final line search alpha, max atom move = 1 7.2662779e-12
  Iterations, force evaluations = 25 50

MPI task timing breakdown:
Section |  min time  |  avg time  |  max time  |%varavg| %total
---------------------------------------------------------------
Pair    | 0.010544   | 0.010544   | 0.010544   |   0.0 | 95.70
Neigh   | 0          | 0          | 0          |   0.0 |  0.00
Comm    | 0.00026487 | 0.00026487 | 0.00026487 |   0.0 |  2.40
Output  | 3.6103e-05 | 3.6103e-05 | 3.6103e-05 |   0.0 |  0.33
Modify  | 0          | 0          | 0          |   0.0 |  0.00
Other   |            | 0.0001725  |            |       |  1.57

Nlocal:             96 ave          96 max          96 min
Histogram: 1 0 0 0 0 0 0 0 0 0
Nghost:            976 ave         976 max         976 min
Histogram: 1 0 0 0 0 0 0 0 0 0
Neighs:           3744 ave        3744 max        3744 min
Histogram: 1 0 0 0 0 0 0 0 0 0

Total # of neighbors = 3744
Ave neighs/atom = 39
Neighbor list builds = 0
Dangerous builds = 0

# Obtain new stress tensor

variable tmp equal pxx
variable pxx1 equal ${tmp}
variable pxx1 equal 12.4240662217861
variable tmp equal pyy
variable pyy1 equal ${tmp}
variable pyy1 equal 9.38756899184335
variable tmp equal pzz
variable pzz1 equal ${tmp}
variable pzz1 equal 9.38756899182381
variable tmp equal pxy
variable pxy1 equal ${tmp}
variable pxy1 equal -5.72026560985552e-12
variable tmp equal pxz
variable pxz1 equal ${tmp}
variable pxz1 equal -8.68149343179813e-13
variable tmp equal pyz
variable pyz1 equal ${tmp}
variable pyz1 equal -5.59202829544613e-12

# Compute elastic constant from pressure tensor

variable C1neg equal ${d1}
variable C1neg equal 124.240662222634
variable C2neg equal ${d2}
variable C2neg equal 93.8756899226963
variable C3neg equal ${d3}
variable C3neg equal 93.8756899227992
variable C4neg equal ${d4}
variable C4neg equal -2.41667366549906e-11
variable C5neg equal ${d5}
variable C5neg equal -1.51473008339292e-11
variable C6neg equal ${d6}
variable C6neg equal -8.67896491323904e-11

# Reset box and simulation parameters

clear
box tilt large

The 'box' command has been removed and will be ignored

read_restart restart.equil
Reading restart file ...
  restart file = 2 Aug 2023, LAMMPS = 2 Aug 2023
  restoring atom style atomic from restart
  triclinic box = (4.1383628e-15 6.1949063e-15 8.3344861e-15) to (8.1800003 12.27 16.360001) with tilt (0 0 0)
  1 by 1 by 1 MPI processor grid
  pair style eam/alloy stores no restart info
  96 atoms
  read_restart CPU = 0.000 seconds
include potential.mod
# NOTE: This script can be modified for different pair styles
# See in.elastic for more info.

#Provide potential
pair_style      eam/alloy ### TYPE OF POTENTIAL (eam (OR) eam/alloy)
pair_coeff      *  *  CuAg.eam.alloy Ag ### POTENTIAL FILENAME

# Setup neighbor style
neighbor 1.0 nsq
neigh_modify once no every 1 delay 0 check yes

# Setup minimization style
min_style	     cg
min_modify	     dmax ${dmax} line quadratic
min_modify	     dmax 0.01 line quadratic

# Setup output
thermo		10
thermo_style custom step temp pe press pxx pyy pzz pxy pxz pyz lx ly lz vol fnorm
thermo_modify norm no

# Positive deformation

variable delta equal ${up}*${len0}
variable delta equal 1e-05*${len0}
variable delta equal 1e-05*8.18000029090869
variable deltaxy equal ${up}*xy
variable deltaxy equal 1e-05*xy
variable deltaxz equal ${up}*xz
variable deltaxz equal 1e-05*xz
variable deltayz equal ${up}*yz
variable deltayz equal 1e-05*yz
if "${dir} == 1" then    "change_box all x delta 0 ${delta} xy delta ${deltaxy} xz delta ${deltaxz} remap units box"
change_box all x delta 0 ${delta} xy delta ${deltaxy} xz delta ${deltaxz} remap units box
change_box all x delta 0 8.18000029090869e-05 xy delta ${deltaxy} xz delta ${deltaxz} remap units box
change_box all x delta 0 8.18000029090869e-05 xy delta 0 xz delta ${deltaxz} remap units box
change_box all x delta 0 8.18000029090869e-05 xy delta 0 xz delta 0 remap units box
Changing box ...
  triclinic box = (4.1383628e-15 6.1949063e-15 8.3344861e-15) to (8.1800821 12.27 16.360001) with tilt (0 0 0)
  triclinic box = (4.1383628e-15 6.1949063e-15 8.3344861e-15) to (8.1800821 12.27 16.360001) with tilt (0 0 0)
  triclinic box = (4.1383628e-15 6.1949063e-15 8.3344861e-15) to (8.1800821 12.27 16.360001) with tilt (0 0 0)
if "${dir} == 2" then    "change_box all y delta 0 ${delta} yz delta ${deltayz} remap units box"
if "${dir} == 3" then    "change_box all z delta 0 ${delta} remap units box"
if "${dir} == 4" then    "change_box all yz delta ${delta} remap units box"
if "${dir} == 5" then    "change_box all xz delta ${delta} remap units box"
if "${dir} == 6" then    "change_box all xy delta ${delta} remap units box"

# Relax atoms positions

minimize ${etol} ${ftol} ${maxiter} ${maxeval}
minimize 0 ${ftol} ${maxiter} ${maxeval}
minimize 0 1e-10 ${maxiter} ${maxeval}
minimize 0 1e-10 10000 ${maxeval}
minimize 0 1e-10 10000 50000
Neighbor list info ...
  update: every = 1 steps, delay = 0 steps, check = yes
  max neighbors/atom: 2000, page size: 100000
  master list distance cutoff = 6.995011
  ghost atom cutoff = 6.995011
  1 neighbor lists, perpetual/occasional/extra = 1 0 0
  (1) pair eam/alloy, perpetual
      attributes: half, newton on
      pair build: half/nsq/newton
      stencil: none
      bin: none
Per MPI rank memory allocation (min/avg/max) = 4.448 | 4.448 | 4.448 Mbytes
   Step          Temp          PotEng         Press           Pxx            Pyy            Pzz            Pxy            Pxz            Pyz             Lx             Ly             Lz           Volume         Fnorm     
         1   0             -273.6         -10.399084     -12.423484     -9.3868829     -9.3868838     -6.1772924e-07 -2.211336e-06   4.9987314e-06  8.1800821      12.27          16.360001      1642.0469      0.00059599966
        10   0             -273.6         -10.399177     -12.423577     -9.3869773     -9.3869773      6.4418347e-12  9.6649566e-13 -4.6588803e-11  8.1800821      12.27          16.360001      1642.0469      1.4391804e-06
        20   0             -273.6         -10.399177     -12.423577     -9.3869773     -9.3869773     -1.9039666e-11 -6.7566966e-12  5.818739e-12   8.1800821      12.27          16.360001      1642.0469      4.7023094e-09
        26   0             -273.6         -10.399177     -12.423577     -9.3869773     -9.3869773      1.341557e-11   6.7896212e-12 -1.709443e-12   8.1800821      12.27          16.360001      1642.0469      4.6517963e-11
Loop time of 0.0109753 on 1 procs for 25 steps with 96 atoms

100.0% CPU use with 1 MPI tasks x no OpenMP threads

Minimization stats:
  Stopping criterion = force tolerance
  Energy initial, next-to-last, final = 
     -273.599997484082  -273.599997509557  -273.599997509558
  Force two-norm initial, final = 0.00059599966 4.6517963e-11
  Force max component initial, final = 9.6774966e-05 6.9175724e-12
  Final line search alpha, max atom move = 1 6.9175724e-12
  Iterations, force evaluations = 25 50

MPI task timing breakdown:
Section |  min time  |  avg time  |  max time  |%varavg| %total
---------------------------------------------------------------
Pair    | 0.010508   | 0.010508   | 0.010508   |   0.0 | 95.75
Neigh   | 0          | 0          | 0          |   0.0 |  0.00
Comm    | 0.00026302 | 0.00026302 | 0.00026302 |   0.0 |  2.40
Output  | 3.4248e-05 | 3.4248e-05 | 3.4248e-05 |   0.0 |  0.31
Modify  | 0          | 0          | 0          |   0.0 |  0.00
Other   |            | 0.0001697  |            |       |  1.55

Nlocal:             96 ave          96 max          96 min
Histogram: 1 0 0 0 0 0 0 0 0 0
Nghost:            976 ave         976 max         976 min
Histogram: 1 0 0 0 0 0 0 0 0 0
Neighs:           3744 ave        3744 max        3744 min
Histogram: 1 0 0 0 0 0 0 0 0 0

Total # of neighbors = 3744
Ave neighs/atom = 39
Neighbor list builds = 0
Dangerous builds = 0

# Obtain new stress tensor

variable tmp equal pe
variable e1 equal ${tmp}
variable e1 equal -273.599997509558
variable tmp equal press
variable p1 equal ${tmp}
variable p1 equal -10.399177125088
variable tmp equal pxx
variable pxx1 equal ${tmp}
variable pxx1 equal -12.4235767121212
variable tmp equal pyy
variable pyy1 equal ${tmp}
variable pyy1 equal -9.38697733155155
variable tmp equal pzz
variable pzz1 equal ${tmp}
variable pzz1 equal -9.38697733159117
variable tmp equal pxy
variable pxy1 equal ${tmp}
variable pxy1 equal 1.34155698938536e-11
variable tmp equal pxz
variable pxz1 equal ${tmp}
variable pxz1 equal 6.78962123654615e-12
variable tmp equal pyz
variable pyz1 equal ${tmp}
variable pyz1 equal -1.70944298507838e-12

# Compute elastic constant from pressure tensor

variable C1pos equal ${d1}
variable C1pos equal 124.235767116439
variable C2pos equal ${d2}
variable C2pos equal 93.8697733112527
variable C3pos equal ${d3}
variable C3pos equal 93.8697733113507
variable C4pos equal ${d4}
variable C4pos equal -1.46591164486869e-11
variable C5pos equal ${d5}
variable C5pos equal -6.14304049633305e-11
variable C6pos equal ${d6}
variable C6pos equal -1.04568705904701e-10

# Combine positive and negative

variable C1${dir} equal 0.5*(${C1neg}+${C1pos})
variable C11 equal 0.5*(${C1neg}+${C1pos})
variable C11 equal 0.5*(124.240662222634+${C1pos})
variable C11 equal 0.5*(124.240662222634+124.235767116439)
variable C2${dir} equal 0.5*(${C2neg}+${C2pos})
variable C21 equal 0.5*(${C2neg}+${C2pos})
variable C21 equal 0.5*(93.8756899226963+${C2pos})
variable C21 equal 0.5*(93.8756899226963+93.8697733112527)
variable C3${dir} equal 0.5*(${C3neg}+${C3pos})
variable C31 equal 0.5*(${C3neg}+${C3pos})
variable C31 equal 0.5*(93.8756899227992+${C3pos})
variable C31 equal 0.5*(93.8756899227992+93.8697733113507)
variable C4${dir} equal 0.5*(${C4neg}+${C4pos})
variable C41 equal 0.5*(${C4neg}+${C4pos})
variable C41 equal 0.5*(-2.41667366549906e-11+${C4pos})
variable C41 equal 0.5*(-2.41667366549906e-11+-1.46591164486869e-11)
variable C5${dir} equal 0.5*(${C5neg}+${C5pos})
variable C51 equal 0.5*(${C5neg}+${C5pos})
variable C51 equal 0.5*(-1.51473008339292e-11+${C5pos})
variable C51 equal 0.5*(-1.51473008339292e-11+-6.14304049633305e-11)
variable C6${dir} equal 0.5*(${C6neg}+${C6pos})
variable C61 equal 0.5*(${C6neg}+${C6pos})
variable C61 equal 0.5*(-8.67896491323904e-11+${C6pos})
variable C61 equal 0.5*(-8.67896491323904e-11+-1.04568705904701e-10)

# Delete dir to make sure it is not reused

variable dir delete

# uyy Perturbation

variable dir equal 2
include displace.mod
# NOTE: This script should not need to be
# modified. See in.elastic for more info.
#
# Find which reference length to use

if "${dir} == 1" then    "variable len0 equal ${lx0}"
if "${dir} == 2" then    "variable len0 equal ${ly0}"
variable len0 equal ${ly0}
variable len0 equal 12.270000436363
if "${dir} == 3" then    "variable len0 equal ${lz0}"
if "${dir} == 4" then    "variable len0 equal ${lz0}"
if "${dir} == 5" then    "variable len0 equal ${lz0}"
if "${dir} == 6" then    "variable len0 equal ${ly0}"

# Reset box and simulation parameters

clear
box tilt large

The 'box' command has been removed and will be ignored

read_restart restart.equil
Reading restart file ...
  restart file = 2 Aug 2023, LAMMPS = 2 Aug 2023
  restoring atom style atomic from restart
  triclinic box = (4.1383628e-15 6.1949063e-15 8.3344861e-15) to (8.1800003 12.27 16.360001) with tilt (0 0 0)
  1 by 1 by 1 MPI processor grid
  pair style eam/alloy stores no restart info
  96 atoms
  read_restart CPU = 0.000 seconds
include potential.mod
# NOTE: This script can be modified for different pair styles
# See in.elastic for more info.

#Provide potential
pair_style      eam/alloy ### TYPE OF POTENTIAL (eam (OR) eam/alloy)
pair_coeff      *  *  CuAg.eam.alloy Ag ### POTENTIAL FILENAME

# Setup neighbor style
neighbor 1.0 nsq
neigh_modify once no every 1 delay 0 check yes

# Setup minimization style
min_style	     cg
min_modify	     dmax ${dmax} line quadratic
min_modify	     dmax 0.01 line quadratic

# Setup output
thermo		10
thermo_style custom step temp pe press pxx pyy pzz pxy pxz pyz lx ly lz vol fnorm
thermo_modify norm no

# Negative deformation

variable delta equal -${up}*${len0}
variable delta equal -1e-05*${len0}
variable delta equal -1e-05*12.270000436363
variable deltaxy equal -${up}*xy
variable deltaxy equal -1e-05*xy
variable deltaxz equal -${up}*xz
variable deltaxz equal -1e-05*xz
variable deltayz equal -${up}*yz
variable deltayz equal -1e-05*yz
if "${dir} == 1" then    "change_box all x delta 0 ${delta} xy delta ${deltaxy} xz delta ${deltaxz} remap units box"
if "${dir} == 2" then    "change_box all y delta 0 ${delta} yz delta ${deltayz} remap units box"
change_box all y delta 0 ${delta} yz delta ${deltayz} remap units box
change_box all y delta 0 -0.00012270000436363 yz delta ${deltayz} remap units box
change_box all y delta 0 -0.00012270000436363 yz delta -0 remap units box
Changing box ...
  triclinic box = (4.1383628e-15 6.1949063e-15 8.3344861e-15) to (8.1800003 12.269878 16.360001) with tilt (0 0 0)
  triclinic box = (4.1383628e-15 6.1949063e-15 8.3344861e-15) to (8.1800003 12.269878 16.360001) with tilt (0 0 0)
if "${dir} == 3" then    "change_box all z delta 0 ${delta} remap units box"
if "${dir} == 4" then    "change_box all yz delta ${delta} remap units box"
if "${dir} == 5" then    "change_box all xz delta ${delta} remap units box"
if "${dir} == 6" then    "change_box all xy delta ${delta} remap units box"

# Relax atoms positions

minimize ${etol} ${ftol} ${maxiter} ${maxeval}
minimize 0 ${ftol} ${maxiter} ${maxeval}
minimize 0 1e-10 ${maxiter} ${maxeval}
minimize 0 1e-10 10000 ${maxeval}
minimize 0 1e-10 10000 50000
Neighbor list info ...
  update: every = 1 steps, delay = 0 steps, check = yes
  max neighbors/atom: 2000, page size: 100000
  master list distance cutoff = 6.995011
  ghost atom cutoff = 6.995011
  1 neighbor lists, perpetual/occasional/extra = 1 0 0
  (1) pair eam/alloy, perpetual
      attributes: half, newton on
      pair build: half/nsq/newton
      stencil: none
      bin: none
Per MPI rank memory allocation (min/avg/max) = 4.448 | 4.448 | 4.448 Mbytes
   Step          Temp          PotEng         Press           Pxx            Pyy            Pzz            Pxy            Pxz            Pyz             Lx             Ly             Lz           Volume         Fnorm     
         1   0             -273.6          10.399828      9.3876614      12.424161      9.3876626     -6.1778768e-07 -2.2116803e-06  4.9989085e-06  8.1800003      12.269878      16.360001      1642.0141      0.00059605041
        10   0             -273.6          10.399735      9.387569       12.424066      9.387569       1.6789686e-11  9.9135047e-12 -3.1431999e-11  8.1800003      12.269878      16.360001      1642.0141      1.4394368e-06
        20   0             -273.6          10.399735      9.387569       12.424066      9.387569       2.3724419e-12  9.0749382e-12  6.4550919e-12  8.1800003      12.269878      16.360001      1642.0141      4.7050207e-09
        26   0             -273.6          10.399735      9.387569       12.424066      9.387569       8.3961126e-12  1.1693134e-12 -1.1227242e-11  8.1800003      12.269878      16.360001      1642.0141      4.6561056e-11
Loop time of 0.0111588 on 1 procs for 25 steps with 96 atoms

100.0% CPU use with 1 MPI tasks x no OpenMP threads

Minimization stats:
  Stopping criterion = force tolerance
  Energy initial, next-to-last, final = 
     -273.599997484077  -273.599997509554  -273.599997509555
  Force two-norm initial, final = 0.00059605041 4.6561056e-11
  Force max component initial, final = 9.678492e-05 7.0589905e-12
  Final line search alpha, max atom move = 1 7.0589905e-12
  Iterations, force evaluations = 25 50

MPI task timing breakdown:
Section |  min time  |  avg time  |  max time  |%varavg| %total
---------------------------------------------------------------
Pair    | 0.010684   | 0.010684   | 0.010684   |   0.0 | 95.74
Neigh   | 0          | 0          | 0          |   0.0 |  0.00
Comm    | 0.00027028 | 0.00027028 | 0.00027028 |   0.0 |  2.42
Output  | 3.4161e-05 | 3.4161e-05 | 3.4161e-05 |   0.0 |  0.31
Modify  | 0          | 0          | 0          |   0.0 |  0.00
Other   |            | 0.0001708  |            |       |  1.53

Nlocal:             96 ave          96 max          96 min
Histogram: 1 0 0 0 0 0 0 0 0 0
Nghost:            976 ave         976 max         976 min
Histogram: 1 0 0 0 0 0 0 0 0 0
Neighs:           3744 ave        3744 max        3744 min
Histogram: 1 0 0 0 0 0 0 0 0 0

Total # of neighbors = 3744
Ave neighs/atom = 39
Neighbor list builds = 0
Dangerous builds = 0

# Obtain new stress tensor

variable tmp equal pxx
variable pxx1 equal ${tmp}
variable pxx1 equal 9.38756899167906
variable tmp equal pyy
variable pyy1 equal ${tmp}
variable pyy1 equal 12.424066221581
variable tmp equal pzz
variable pzz1 equal ${tmp}
variable pzz1 equal 9.38756899166124
variable tmp equal pxy
variable pxy1 equal ${tmp}
variable pxy1 equal 8.39611259786569e-12
variable tmp equal pxz
variable pxz1 equal ${tmp}
variable pxz1 equal 1.16931344083327e-12
variable tmp equal pyz
variable pyz1 equal ${tmp}
variable pyz1 equal -1.12272417176472e-11

# Compute elastic constant from pressure tensor

variable C1neg equal ${d1}
variable C1neg equal 93.8756899215631
variable C2neg equal ${d2}
variable C2neg equal 124.240662220073
variable C3neg equal ${d3}
variable C3neg equal 93.8756899211735
variable C4neg equal ${d4}
variable C4neg equal -8.05188708770013e-11
variable C5neg equal ${d5}
variable C5neg equal 5.22732700620167e-12
variable C6neg equal ${d6}
variable C6neg equal 5.43741329448217e-11

# Reset box and simulation parameters

clear
box tilt large

The 'box' command has been removed and will be ignored

read_restart restart.equil
Reading restart file ...
  restart file = 2 Aug 2023, LAMMPS = 2 Aug 2023
  restoring atom style atomic from restart
  triclinic box = (4.1383628e-15 6.1949063e-15 8.3344861e-15) to (8.1800003 12.27 16.360001) with tilt (0 0 0)
  1 by 1 by 1 MPI processor grid
  pair style eam/alloy stores no restart info
  96 atoms
  read_restart CPU = 0.000 seconds
include potential.mod
# NOTE: This script can be modified for different pair styles
# See in.elastic for more info.

#Provide potential
pair_style      eam/alloy ### TYPE OF POTENTIAL (eam (OR) eam/alloy)
pair_coeff      *  *  CuAg.eam.alloy Ag ### POTENTIAL FILENAME

# Setup neighbor style
neighbor 1.0 nsq
neigh_modify once no every 1 delay 0 check yes

# Setup minimization style
min_style	     cg
min_modify	     dmax ${dmax} line quadratic
min_modify	     dmax 0.01 line quadratic

# Setup output
thermo		10
thermo_style custom step temp pe press pxx pyy pzz pxy pxz pyz lx ly lz vol fnorm
thermo_modify norm no

# Positive deformation

variable delta equal ${up}*${len0}
variable delta equal 1e-05*${len0}
variable delta equal 1e-05*12.270000436363
variable deltaxy equal ${up}*xy
variable deltaxy equal 1e-05*xy
variable deltaxz equal ${up}*xz
variable deltaxz equal 1e-05*xz
variable deltayz equal ${up}*yz
variable deltayz equal 1e-05*yz
if "${dir} == 1" then    "change_box all x delta 0 ${delta} xy delta ${deltaxy} xz delta ${deltaxz} remap units box"
if "${dir} == 2" then    "change_box all y delta 0 ${delta} yz delta ${deltayz} remap units box"
change_box all y delta 0 ${delta} yz delta ${deltayz} remap units box
change_box all y delta 0 0.00012270000436363 yz delta ${deltayz} remap units box
change_box all y delta 0 0.00012270000436363 yz delta 0 remap units box
Changing box ...
  triclinic box = (4.1383628e-15 6.1949063e-15 8.3344861e-15) to (8.1800003 12.270123 16.360001) with tilt (0 0 0)
  triclinic box = (4.1383628e-15 6.1949063e-15 8.3344861e-15) to (8.1800003 12.270123 16.360001) with tilt (0 0 0)
if "${dir} == 3" then    "change_box all z delta 0 ${delta} remap units box"
if "${dir} == 4" then    "change_box all yz delta ${delta} remap units box"
if "${dir} == 5" then    "change_box all xz delta ${delta} remap units box"
if "${dir} == 6" then    "change_box all xy delta ${delta} remap units box"

# Relax atoms positions

minimize ${etol} ${ftol} ${maxiter} ${maxeval}
minimize 0 ${ftol} ${maxiter} ${maxeval}
minimize 0 1e-10 ${maxiter} ${maxeval}
minimize 0 1e-10 10000 ${maxeval}
minimize 0 1e-10 10000 50000
Neighbor list info ...
  update: every = 1 steps, delay = 0 steps, check = yes
  max neighbors/atom: 2000, page size: 100000
  master list distance cutoff = 6.995011
  ghost atom cutoff = 6.995011
  1 neighbor lists, perpetual/occasional/extra = 1 0 0
  (1) pair eam/alloy, perpetual
      attributes: half, newton on
      pair build: half/nsq/newton
      stencil: none
      bin: none
Per MPI rank memory allocation (min/avg/max) = 4.448 | 4.448 | 4.448 Mbytes
   Step          Temp          PotEng         Press           Pxx            Pyy            Pzz            Pxy            Pxz            Pyz             Lx             Ly             Lz           Volume         Fnorm     
         1   0             -273.6         -10.399084     -9.3868849     -12.423482     -9.3868838     -6.1759993e-07 -2.2112911e-06  4.9987641e-06  8.1800003      12.270123      16.360001      1642.0469      0.00059599934
        10   0             -273.6         -10.399177     -9.3869773     -12.423577     -9.3869773      1.6357948e-11 -8.749129e-12  -3.9496566e-11  8.1800003      12.270123      16.360001      1642.0469      1.4391036e-06
        20   0             -273.6         -10.399177     -9.3869773     -12.423577     -9.3869773     -8.6893997e-13  3.6515558e-13 -3.334516e-12   8.1800003      12.270123      16.360001      1642.0469      4.7070648e-09
        26   0             -273.6         -10.399177     -9.3869773     -12.423577     -9.3869773      1.0754375e-12  2.0467167e-12  4.296874e-12   8.1800003      12.270123      16.360001      1642.0469      4.6508088e-11
Loop time of 0.00800313 on 1 procs for 25 steps with 96 atoms

100.0% CPU use with 1 MPI tasks x no OpenMP threads

Minimization stats:
  Stopping criterion = force tolerance
  Energy initial, next-to-last, final = 
      -273.59999748408  -273.599997509556  -273.599997509559
  Force two-norm initial, final = 0.00059599934 4.6508088e-11
  Force max component initial, final = 9.6775586e-05 7.1172165e-12
  Final line search alpha, max atom move = 1 7.1172165e-12
  Iterations, force evaluations = 25 50

MPI task timing breakdown:
Section |  min time  |  avg time  |  max time  |%varavg| %total
---------------------------------------------------------------
Pair    | 0.007673   | 0.007673   | 0.007673   |   0.0 | 95.88
Neigh   | 0          | 0          | 0          |   0.0 |  0.00
Comm    | 0.0001848  | 0.0001848  | 0.0001848  |   0.0 |  2.31
Output  | 2.4544e-05 | 2.4544e-05 | 2.4544e-05 |   0.0 |  0.31
Modify  | 0          | 0          | 0          |   0.0 |  0.00
Other   |            | 0.0001208  |            |       |  1.51

Nlocal:             96 ave          96 max          96 min
Histogram: 1 0 0 0 0 0 0 0 0 0
Nghost:            976 ave         976 max         976 min
Histogram: 1 0 0 0 0 0 0 0 0 0
Neighs:           3744 ave        3744 max        3744 min
Histogram: 1 0 0 0 0 0 0 0 0 0

Total # of neighbors = 3744
Ave neighs/atom = 39
Neighbor list builds = 0
Dangerous builds = 0

# Obtain new stress tensor

variable tmp equal pe
variable e1 equal ${tmp}
variable e1 equal -273.599997509559
variable tmp equal press
variable p1 equal ${tmp}
variable p1 equal -10.3991771249576
variable tmp equal pxx
variable pxx1 equal ${tmp}
variable pxx1 equal -9.38697733147598
variable tmp equal pyy
variable pyy1 equal ${tmp}
variable pyy1 equal -12.4235767119286
variable tmp equal pzz
variable pzz1 equal ${tmp}
variable pzz1 equal -9.38697733146817
variable tmp equal pxy
variable pxy1 equal ${tmp}
variable pxy1 equal 1.07543751215079e-12
variable tmp equal pxz
variable pxz1 equal ${tmp}
variable pxz1 equal 2.04671668116748e-12
variable tmp equal pyz
variable pyz1 equal ${tmp}
variable pyz1 equal 4.29687397472977e-12

# Compute elastic constant from pressure tensor

variable C1pos equal ${d1}
variable C1pos equal 93.8697733099873
variable C2pos equal ${d2}
variable C2pos equal 124.235767115023
variable C3pos equal ${d3}
variable C3pos equal 93.8697733101206
variable C4pos equal ${d4}
variable C4pos equal -7.47222860467684e-11
variable C5pos equal ${d5}
variable C5pos equal -1.40013594095438e-11
variable C6pos equal ${d6}
variable C6pos equal 1.88326179123273e-11

# Combine positive and negative

variable C1${dir} equal 0.5*(${C1neg}+${C1pos})
variable C12 equal 0.5*(${C1neg}+${C1pos})
variable C12 equal 0.5*(93.8756899215631+${C1pos})
variable C12 equal 0.5*(93.8756899215631+93.8697733099873)
variable C2${dir} equal 0.5*(${C2neg}+${C2pos})
variable C22 equal 0.5*(${C2neg}+${C2pos})
variable C22 equal 0.5*(124.240662220073+${C2pos})
variable C22 equal 0.5*(124.240662220073+124.235767115023)
variable C3${dir} equal 0.5*(${C3neg}+${C3pos})
variable C32 equal 0.5*(${C3neg}+${C3pos})
variable C32 equal 0.5*(93.8756899211735+${C3pos})
variable C32 equal 0.5*(93.8756899211735+93.8697733101206)
variable C4${dir} equal 0.5*(${C4neg}+${C4pos})
variable C42 equal 0.5*(${C4neg}+${C4pos})
variable C42 equal 0.5*(-8.05188708770013e-11+${C4pos})
variable C42 equal 0.5*(-8.05188708770013e-11+-7.47222860467684e-11)
variable C5${dir} equal 0.5*(${C5neg}+${C5pos})
variable C52 equal 0.5*(${C5neg}+${C5pos})
variable C52 equal 0.5*(5.22732700620167e-12+${C5pos})
variable C52 equal 0.5*(5.22732700620167e-12+-1.40013594095438e-11)
variable C6${dir} equal 0.5*(${C6neg}+${C6pos})
variable C62 equal 0.5*(${C6neg}+${C6pos})
variable C62 equal 0.5*(5.43741329448217e-11+${C6pos})
variable C62 equal 0.5*(5.43741329448217e-11+1.88326179123273e-11)

# Delete dir to make sure it is not reused

variable dir delete

# uzz Perturbation

variable dir equal 3
include displace.mod
# NOTE: This script should not need to be
# modified. See in.elastic for more info.
#
# Find which reference length to use

if "${dir} == 1" then    "variable len0 equal ${lx0}"
if "${dir} == 2" then    "variable len0 equal ${ly0}"
if "${dir} == 3" then    "variable len0 equal ${lz0}"
variable len0 equal ${lz0}
variable len0 equal 16.3600005818174
if "${dir} == 4" then    "variable len0 equal ${lz0}"
if "${dir} == 5" then    "variable len0 equal ${lz0}"
if "${dir} == 6" then    "variable len0 equal ${ly0}"

# Reset box and simulation parameters

clear
box tilt large

The 'box' command has been removed and will be ignored

read_restart restart.equil
Reading restart file ...
  restart file = 2 Aug 2023, LAMMPS = 2 Aug 2023
  restoring atom style atomic from restart
  triclinic box = (4.1383628e-15 6.1949063e-15 8.3344861e-15) to (8.1800003 12.27 16.360001) with tilt (0 0 0)
  1 by 1 by 1 MPI processor grid
  pair style eam/alloy stores no restart info
  96 atoms
  read_restart CPU = 0.000 seconds
include potential.mod
# NOTE: This script can be modified for different pair styles
# See in.elastic for more info.

#Provide potential
pair_style      eam/alloy ### TYPE OF POTENTIAL (eam (OR) eam/alloy)
pair_coeff      *  *  CuAg.eam.alloy Ag ### POTENTIAL FILENAME

# Setup neighbor style
neighbor 1.0 nsq
neigh_modify once no every 1 delay 0 check yes

# Setup minimization style
min_style	     cg
min_modify	     dmax ${dmax} line quadratic
min_modify	     dmax 0.01 line quadratic

# Setup output
thermo		10
thermo_style custom step temp pe press pxx pyy pzz pxy pxz pyz lx ly lz vol fnorm
thermo_modify norm no

# Negative deformation

variable delta equal -${up}*${len0}
variable delta equal -1e-05*${len0}
variable delta equal -1e-05*16.3600005818174
variable deltaxy equal -${up}*xy
variable deltaxy equal -1e-05*xy
variable deltaxz equal -${up}*xz
variable deltaxz equal -1e-05*xz
variable deltayz equal -${up}*yz
variable deltayz equal -1e-05*yz
if "${dir} == 1" then    "change_box all x delta 0 ${delta} xy delta ${deltaxy} xz delta ${deltaxz} remap units box"
if "${dir} == 2" then    "change_box all y delta 0 ${delta} yz delta ${deltayz} remap units box"
if "${dir} == 3" then    "change_box all z delta 0 ${delta} remap units box"
change_box all z delta 0 ${delta} remap units box
change_box all z delta 0 -0.000163600005818174 remap units box
Changing box ...
  triclinic box = (4.1383628e-15 6.1949063e-15 8.3344861e-15) to (8.1800003 12.27 16.359837) with tilt (0 0 0)
if "${dir} == 4" then    "change_box all yz delta ${delta} remap units box"
if "${dir} == 5" then    "change_box all xz delta ${delta} remap units box"
if "${dir} == 6" then    "change_box all xy delta ${delta} remap units box"

# Relax atoms positions

minimize ${etol} ${ftol} ${maxiter} ${maxeval}
minimize 0 ${ftol} ${maxiter} ${maxeval}
minimize 0 1e-10 ${maxiter} ${maxeval}
minimize 0 1e-10 10000 ${maxeval}
minimize 0 1e-10 10000 50000
Neighbor list info ...
  update: every = 1 steps, delay = 0 steps, check = yes
  max neighbors/atom: 2000, page size: 100000
  master list distance cutoff = 6.995011
  ghost atom cutoff = 6.995011
  1 neighbor lists, perpetual/occasional/extra = 1 0 0
  (1) pair eam/alloy, perpetual
      attributes: half, newton on
      pair build: half/nsq/newton
      stencil: none
      bin: none
Per MPI rank memory allocation (min/avg/max) = 4.448 | 4.448 | 4.448 Mbytes
   Step          Temp          PotEng         Press           Pxx            Pyy            Pzz            Pxy            Pxz            Pyz             Lx             Ly             Lz           Volume         Fnorm     
         1   0             -273.6          10.399828      9.3876614      9.3876634      12.42416      -6.1782456e-07 -2.2115215e-06  4.9988904e-06  8.1800003      12.27          16.359837      1642.0141      0.00059605059
        10   0             -273.6          10.399735      9.387569       9.387569       12.424066      1.4945135e-11  2.3186995e-12 -2.4001161e-11  8.1800003      12.27          16.359837      1642.0141      1.4394797e-06
        20   0             -273.6          10.399735      9.387569       9.387569       12.424066      4.2952771e-12 -6.7997816e-12  7.2236204e-12  8.1800003      12.27          16.359837      1642.0141      4.7001277e-09
        26   0             -273.6          10.399735      9.387569       9.387569       12.424066      8.6965556e-12 -1.2487182e-11  1.1503964e-11  8.1800003      12.27          16.359837      1642.0141      4.6525772e-11
Loop time of 0.00798593 on 1 procs for 25 steps with 96 atoms

100.0% CPU use with 1 MPI tasks x no OpenMP threads

Minimization stats:
  Stopping criterion = force tolerance
  Energy initial, next-to-last, final = 
     -273.599997484076  -273.599997509554  -273.599997509555
  Force two-norm initial, final = 0.00059605059 4.6525772e-11
  Force max component initial, final = 9.6783173e-05 6.5269248e-12
  Final line search alpha, max atom move = 1 6.5269248e-12
  Iterations, force evaluations = 25 50

MPI task timing breakdown:
Section |  min time  |  avg time  |  max time  |%varavg| %total
---------------------------------------------------------------
Pair    | 0.007641   | 0.007641   | 0.007641   |   0.0 | 95.68
Neigh   | 0          | 0          | 0          |   0.0 |  0.00
Comm    | 0.00020103 | 0.00020103 | 0.00020103 |   0.0 |  2.52
Output  | 2.4613e-05 | 2.4613e-05 | 2.4613e-05 |   0.0 |  0.31
Modify  | 0          | 0          | 0          |   0.0 |  0.00
Other   |            | 0.0001193  |            |       |  1.49

Nlocal:             96 ave          96 max          96 min
Histogram: 1 0 0 0 0 0 0 0 0 0
Nghost:            976 ave         976 max         976 min
Histogram: 1 0 0 0 0 0 0 0 0 0
Neighs:           3744 ave        3744 max        3744 min
Histogram: 1 0 0 0 0 0 0 0 0 0

Total # of neighbors = 3744
Ave neighs/atom = 39
Neighbor list builds = 0
Dangerous builds = 0

# Obtain new stress tensor

variable tmp equal pxx
variable pxx1 equal ${tmp}
variable pxx1 equal 9.38756899179952
variable tmp equal pyy
variable pyy1 equal ${tmp}
variable pyy1 equal 9.38756899183925
variable tmp equal pzz
variable pzz1 equal ${tmp}
variable pzz1 equal 12.4240662217501
variable tmp equal pxy
variable pxy1 equal ${tmp}
variable pxy1 equal 8.69655560592882e-12
variable tmp equal pxz
variable pxz1 equal ${tmp}
variable pxz1 equal -1.24871824903666e-11
variable tmp equal pyz
variable pyz1 equal ${tmp}
variable pyz1 equal 1.15039640485787e-11

# Compute elastic constant from pressure tensor

variable C1neg equal ${d1}
variable C1neg equal 93.8756899227677
variable C2neg equal ${d2}
variable C2neg equal 93.8756899226553
variable C3neg equal ${d3}
variable C3neg equal 124.240662222062
variable C4neg equal ${d4}
variable C4neg equal 1.46793186785258e-10
variable C5neg equal ${d5}
variable C5neg equal -1.31337632305797e-10
variable C6neg equal ${d6}
variable C6neg equal 5.7378563025453e-11

# Reset box and simulation parameters

clear
box tilt large

The 'box' command has been removed and will be ignored

read_restart restart.equil
Reading restart file ...
  restart file = 2 Aug 2023, LAMMPS = 2 Aug 2023
  restoring atom style atomic from restart
  triclinic box = (4.1383628e-15 6.1949063e-15 8.3344861e-15) to (8.1800003 12.27 16.360001) with tilt (0 0 0)
  1 by 1 by 1 MPI processor grid
  pair style eam/alloy stores no restart info
  96 atoms
  read_restart CPU = 0.000 seconds
include potential.mod
# NOTE: This script can be modified for different pair styles
# See in.elastic for more info.

#Provide potential
pair_style      eam/alloy ### TYPE OF POTENTIAL (eam (OR) eam/alloy)
pair_coeff      *  *  CuAg.eam.alloy Ag ### POTENTIAL FILENAME

# Setup neighbor style
neighbor 1.0 nsq
neigh_modify once no every 1 delay 0 check yes

# Setup minimization style
min_style	     cg
min_modify	     dmax ${dmax} line quadratic
min_modify	     dmax 0.01 line quadratic

# Setup output
thermo		10
thermo_style custom step temp pe press pxx pyy pzz pxy pxz pyz lx ly lz vol fnorm
thermo_modify norm no

# Positive deformation

variable delta equal ${up}*${len0}
variable delta equal 1e-05*${len0}
variable delta equal 1e-05*16.3600005818174
variable deltaxy equal ${up}*xy
variable deltaxy equal 1e-05*xy
variable deltaxz equal ${up}*xz
variable deltaxz equal 1e-05*xz
variable deltayz equal ${up}*yz
variable deltayz equal 1e-05*yz
if "${dir} == 1" then    "change_box all x delta 0 ${delta} xy delta ${deltaxy} xz delta ${deltaxz} remap units box"
if "${dir} == 2" then    "change_box all y delta 0 ${delta} yz delta ${deltayz} remap units box"
if "${dir} == 3" then    "change_box all z delta 0 ${delta} remap units box"
change_box all z delta 0 ${delta} remap units box
change_box all z delta 0 0.000163600005818174 remap units box
Changing box ...
  triclinic box = (4.1383628e-15 6.1949063e-15 8.3344861e-15) to (8.1800003 12.27 16.360164) with tilt (0 0 0)
if "${dir} == 4" then    "change_box all yz delta ${delta} remap units box"
if "${dir} == 5" then    "change_box all xz delta ${delta} remap units box"
if "${dir} == 6" then    "change_box all xy delta ${delta} remap units box"

# Relax atoms positions

minimize ${etol} ${ftol} ${maxiter} ${maxeval}
minimize 0 ${ftol} ${maxiter} ${maxeval}
minimize 0 1e-10 ${maxiter} ${maxeval}
minimize 0 1e-10 10000 ${maxeval}
minimize 0 1e-10 10000 50000
Neighbor list info ...
  update: every = 1 steps, delay = 0 steps, check = yes
  max neighbors/atom: 2000, page size: 100000
  master list distance cutoff = 6.995011
  ghost atom cutoff = 6.995011
  1 neighbor lists, perpetual/occasional/extra = 1 0 0
  (1) pair eam/alloy, perpetual
      attributes: half, newton on
      pair build: half/nsq/newton
      stencil: none
      bin: none
Per MPI rank memory allocation (min/avg/max) = 4.448 | 4.448 | 4.448 Mbytes
   Step          Temp          PotEng         Press           Pxx            Pyy            Pzz            Pxy            Pxz            Pyz             Lx             Ly             Lz           Volume         Fnorm     
         1   0             -273.6         -10.399084     -9.3868849     -9.3868829     -12.423483     -6.1758247e-07 -2.2114574e-06  4.998795e-06   8.1800003      12.27          16.360164      1642.0469      0.00059599916
        10   0             -273.6         -10.399177     -9.3869773     -9.3869773     -12.423577      8.1086253e-12 -1.3085112e-11 -3.1157744e-11  8.1800003      12.27          16.360164      1642.0469      1.4390606e-06
        20   0             -273.6         -10.399177     -9.3869773     -9.3869773     -12.423577      1.1773534e-11  5.4912502e-12  2.1633107e-12  8.1800003      12.27          16.360164      1642.0469      4.7049263e-09
        26   0             -273.6         -10.399177     -9.3869773     -9.3869773     -12.423577      8.1236472e-12 -1.9578486e-12 -2.2742242e-12  8.1800003      12.27          16.360164      1642.0469      4.6532392e-11
Loop time of 0.00795408 on 1 procs for 25 steps with 96 atoms

100.0% CPU use with 1 MPI tasks x no OpenMP threads

Minimization stats:
  Stopping criterion = force tolerance
  Energy initial, next-to-last, final = 
      -273.59999748408  -273.599997509557  -273.599997509559
  Force two-norm initial, final = 0.00059599916 4.6532392e-11
  Force max component initial, final = 9.6777333e-05 7.6326289e-12
  Final line search alpha, max atom move = 1 7.6326289e-12
  Iterations, force evaluations = 25 50

MPI task timing breakdown:
Section |  min time  |  avg time  |  max time  |%varavg| %total
---------------------------------------------------------------
Pair    | 0.0076224  | 0.0076224  | 0.0076224  |   0.0 | 95.83
Neigh   | 0          | 0          | 0          |   0.0 |  0.00
Comm    | 0.00018531 | 0.00018531 | 0.00018531 |   0.0 |  2.33
Output  | 2.4496e-05 | 2.4496e-05 | 2.4496e-05 |   0.0 |  0.31
Modify  | 0          | 0          | 0          |   0.0 |  0.00
Other   |            | 0.0001219  |            |       |  1.53

Nlocal:             96 ave          96 max          96 min
Histogram: 1 0 0 0 0 0 0 0 0 0
Nghost:            976 ave         976 max         976 min
Histogram: 1 0 0 0 0 0 0 0 0 0
Neighs:           3744 ave        3744 max        3744 min
Histogram: 1 0 0 0 0 0 0 0 0 0

Total # of neighbors = 3744
Ave neighs/atom = 39
Neighbor list builds = 0
Dangerous builds = 0

# Obtain new stress tensor

variable tmp equal pe
variable e1 equal ${tmp}
variable e1 equal -273.599997509559
variable tmp equal press
variable p1 equal ${tmp}
variable p1 equal -10.3991771251024
variable tmp equal pxx
variable pxx1 equal ${tmp}
variable pxx1 equal -9.38697733159943
variable tmp equal pyy
variable pyy1 equal ${tmp}
variable pyy1 equal -9.38697733156152
variable tmp equal pzz
variable pzz1 equal ${tmp}
variable pzz1 equal -12.4235767121461
variable tmp equal pxy
variable pxy1 equal ${tmp}
variable pxy1 equal 8.12364719979184e-12
variable tmp equal pxz
variable pxz1 equal ${tmp}
variable pxz1 equal -1.95784860950098e-12
variable tmp equal pyz
variable pyz1 equal ${tmp}
variable pyz1 equal -2.27422421899295e-12

# Compute elastic constant from pressure tensor

variable C1pos equal ${d1}
variable C1pos equal 93.8697733112218
variable C2pos equal ${d2}
variable C2pos equal 93.8697733113524
variable C3pos equal ${d3}
variable C3pos equal 124.2357671169
variable C4pos equal ${d4}
variable C4pos equal -9.0113041095412e-12
variable C5pos equal ${d5}
variable C5pos equal 2.60442934971408e-11
variable C6pos equal ${d6}
variable C6pos equal -5.16494789640832e-11

# Combine positive and negative

variable C1${dir} equal 0.5*(${C1neg}+${C1pos})
variable C13 equal 0.5*(${C1neg}+${C1pos})
variable C13 equal 0.5*(93.8756899227677+${C1pos})
variable C13 equal 0.5*(93.8756899227677+93.8697733112218)
variable C2${dir} equal 0.5*(${C2neg}+${C2pos})
variable C23 equal 0.5*(${C2neg}+${C2pos})
variable C23 equal 0.5*(93.8756899226553+${C2pos})
variable C23 equal 0.5*(93.8756899226553+93.8697733113524)
variable C3${dir} equal 0.5*(${C3neg}+${C3pos})
variable C33 equal 0.5*(${C3neg}+${C3pos})
variable C33 equal 0.5*(124.240662222062+${C3pos})
variable C33 equal 0.5*(124.240662222062+124.2357671169)
variable C4${dir} equal 0.5*(${C4neg}+${C4pos})
variable C43 equal 0.5*(${C4neg}+${C4pos})
variable C43 equal 0.5*(1.46793186785258e-10+${C4pos})
variable C43 equal 0.5*(1.46793186785258e-10+-9.0113041095412e-12)
variable C5${dir} equal 0.5*(${C5neg}+${C5pos})
variable C53 equal 0.5*(${C5neg}+${C5pos})
variable C53 equal 0.5*(-1.31337632305797e-10+${C5pos})
variable C53 equal 0.5*(-1.31337632305797e-10+2.60442934971408e-11)
variable C6${dir} equal 0.5*(${C6neg}+${C6pos})
variable C63 equal 0.5*(${C6neg}+${C6pos})
variable C63 equal 0.5*(5.7378563025453e-11+${C6pos})
variable C63 equal 0.5*(5.7378563025453e-11+-5.16494789640832e-11)

# Delete dir to make sure it is not reused

variable dir delete

# uyz Perturbation

variable dir equal 4
include displace.mod
# NOTE: This script should not need to be
# modified. See in.elastic for more info.
#
# Find which reference length to use

if "${dir} == 1" then    "variable len0 equal ${lx0}"
if "${dir} == 2" then    "variable len0 equal ${ly0}"
if "${dir} == 3" then    "variable len0 equal ${lz0}"
if "${dir} == 4" then    "variable len0 equal ${lz0}"
variable len0 equal ${lz0}
variable len0 equal 16.3600005818174
if "${dir} == 5" then    "variable len0 equal ${lz0}"
if "${dir} == 6" then    "variable len0 equal ${ly0}"

# Reset box and simulation parameters

clear
box tilt large

The 'box' command has been removed and will be ignored

read_restart restart.equil
Reading restart file ...
  restart file = 2 Aug 2023, LAMMPS = 2 Aug 2023
  restoring atom style atomic from restart
  triclinic box = (4.1383628e-15 6.1949063e-15 8.3344861e-15) to (8.1800003 12.27 16.360001) with tilt (0 0 0)
  1 by 1 by 1 MPI processor grid
  pair style eam/alloy stores no restart info
  96 atoms
  read_restart CPU = 0.000 seconds
include potential.mod
# NOTE: This script can be modified for different pair styles
# See in.elastic for more info.

#Provide potential
pair_style      eam/alloy ### TYPE OF POTENTIAL (eam (OR) eam/alloy)
pair_coeff      *  *  CuAg.eam.alloy Ag ### POTENTIAL FILENAME

# Setup neighbor style
neighbor 1.0 nsq
neigh_modify once no every 1 delay 0 check yes

# Setup minimization style
min_style	     cg
min_modify	     dmax ${dmax} line quadratic
min_modify	     dmax 0.01 line quadratic

# Setup output
thermo		10
thermo_style custom step temp pe press pxx pyy pzz pxy pxz pyz lx ly lz vol fnorm
thermo_modify norm no

# Negative deformation

variable delta equal -${up}*${len0}
variable delta equal -1e-05*${len0}
variable delta equal -1e-05*16.3600005818174
variable deltaxy equal -${up}*xy
variable deltaxy equal -1e-05*xy
variable deltaxz equal -${up}*xz
variable deltaxz equal -1e-05*xz
variable deltayz equal -${up}*yz
variable deltayz equal -1e-05*yz
if "${dir} == 1" then    "change_box all x delta 0 ${delta} xy delta ${deltaxy} xz delta ${deltaxz} remap units box"
if "${dir} == 2" then    "change_box all y delta 0 ${delta} yz delta ${deltayz} remap units box"
if "${dir} == 3" then    "change_box all z delta 0 ${delta} remap units box"
if "${dir} == 4" then    "change_box all yz delta ${delta} remap units box"
change_box all yz delta ${delta} remap units box
change_box all yz delta -0.000163600005818174 remap units box
Changing box ...
  triclinic box = (4.1383628e-15 6.1949063e-15 8.3344861e-15) to (8.1800003 12.27 16.360001) with tilt (0 0 -0.00016360001)
if "${dir} == 5" then    "change_box all xz delta ${delta} remap units box"
if "${dir} == 6" then    "change_box all xy delta ${delta} remap units box"

# Relax atoms positions

minimize ${etol} ${ftol} ${maxiter} ${maxeval}
minimize 0 ${ftol} ${maxiter} ${maxeval}
minimize 0 1e-10 ${maxiter} ${maxeval}
minimize 0 1e-10 10000 ${maxeval}
minimize 0 1e-10 10000 50000
Neighbor list info ...
  update: every = 1 steps, delay = 0 steps, check = yes
  max neighbors/atom: 2000, page size: 100000
  master list distance cutoff = 6.995011
  ghost atom cutoff = 6.995011
  1 neighbor lists, perpetual/occasional/extra = 1 0 0
  (1) pair eam/alloy, perpetual
      attributes: half, newton on
      pair build: half/nsq/newton
      stencil: none
      bin: none
Per MPI rank memory allocation (min/avg/max) = 4.448 | 4.448 | 4.448 Mbytes
   Step          Temp          PotEng         Press           Pxx            Pyy            Pzz            Pxy            Pxz            Pyz             Lx             Ly             Lz           Volume         Fnorm     
         1   0             -273.6          0.00014362281  7.175872e-05   0.00014115119  0.00021795851 -6.1783418e-07 -2.2115938e-06  4.6419356      8.1800003      12.27          16.360001      1642.0305      0.00059602593
        10   0             -273.6          5.0150681e-05 -2.0688303e-05  4.6742249e-05  0.0001243981  -9.6443357e-12 -1.6134927e-12  4.6419306      8.1800003      12.27          16.360001      1642.0305      1.4392649e-06
        20   0             -273.6          5.0149812e-05 -2.0689493e-05  4.674154e-05   0.00012439739 -1.0219192e-13 -5.6511766e-12  4.6419306      8.1800003      12.27          16.360001      1642.0305      4.6995602e-09
        25   0             -273.6          5.0149789e-05 -2.0689493e-05  4.6741504e-05  0.00012439736 -5.9950475e-12 -3.8351456e-12  4.6419306      8.1800003      12.27          16.360001      1642.0305      7.9323028e-11
Loop time of 0.00759415 on 1 procs for 24 steps with 96 atoms

100.0% CPU use with 1 MPI tasks x no OpenMP threads

Minimization stats:
  Stopping criterion = force tolerance
  Energy initial, next-to-last, final = 
     -273.599997523955  -273.599997549431  -273.599997549433
  Force two-norm initial, final = 0.00059602593 7.9323028e-11
  Force max component initial, final = 9.6780142e-05 1.3058832e-11
  Final line search alpha, max atom move = 1 1.3058832e-11
  Iterations, force evaluations = 24 48

MPI task timing breakdown:
Section |  min time  |  avg time  |  max time  |%varavg| %total
---------------------------------------------------------------
Pair    | 0.0072637  | 0.0072637  | 0.0072637  |   0.0 | 95.65
Neigh   | 0          | 0          | 0          |   0.0 |  0.00
Comm    | 0.00017734 | 0.00017734 | 0.00017734 |   0.0 |  2.34
Output  | 2.3574e-05 | 2.3574e-05 | 2.3574e-05 |   0.0 |  0.31
Modify  | 0          | 0          | 0          |   0.0 |  0.00
Other   |            | 0.0001296  |            |       |  1.71

Nlocal:             96 ave          96 max          96 min
Histogram: 1 0 0 0 0 0 0 0 0 0
Nghost:            976 ave         976 max         976 min
Histogram: 1 0 0 0 0 0 0 0 0 0
Neighs:           3744 ave        3744 max        3744 min
Histogram: 1 0 0 0 0 0 0 0 0 0

Total # of neighbors = 3744
Ave neighs/atom = 39
Neighbor list builds = 0
Dangerous builds = 0

# Obtain new stress tensor

variable tmp equal pxx
variable pxx1 equal ${tmp}
variable pxx1 equal -2.06894929013021e-05
variable tmp equal pyy
variable pyy1 equal ${tmp}
variable pyy1 equal 4.67415039414662e-05
variable tmp equal pzz
variable pzz1 equal ${tmp}
variable pzz1 equal 0.000124397356918646
variable tmp equal pxy
variable pxy1 equal ${tmp}
variable pxy1 equal -5.99504753728346e-12
variable tmp equal pxz
variable pxz1 equal ${tmp}
variable pxz1 equal -3.83514555332033e-12
variable tmp equal pyz
variable pyz1 equal ${tmp}
variable pyz1 equal 4.64193055490767

# Compute elastic constant from pressure tensor

variable C1neg equal ${d1}
variable C1neg equal -0.000206890156468553
variable C2neg equal ${d2}
variable C2neg equal 0.000467419302243622
variable C3neg equal ${d3}
variable C3neg equal 0.00124397813025502
variable C4neg equal ${d4}
variable C4neg equal 46.4193055491085
variable C5neg equal ${d5}
variable C5neg equal -4.48172629353343e-11
variable C6neg equal ${d6}
variable C6neg equal -8.95374684066698e-11

# Reset box and simulation parameters

clear
box tilt large

The 'box' command has been removed and will be ignored

read_restart restart.equil
Reading restart file ...
  restart file = 2 Aug 2023, LAMMPS = 2 Aug 2023
  restoring atom style atomic from restart
  triclinic box = (4.1383628e-15 6.1949063e-15 8.3344861e-15) to (8.1800003 12.27 16.360001) with tilt (0 0 0)
  1 by 1 by 1 MPI processor grid
  pair style eam/alloy stores no restart info
  96 atoms
  read_restart CPU = 0.000 seconds
include potential.mod
# NOTE: This script can be modified for different pair styles
# See in.elastic for more info.

#Provide potential
pair_style      eam/alloy ### TYPE OF POTENTIAL (eam (OR) eam/alloy)
pair_coeff      *  *  CuAg.eam.alloy Ag ### POTENTIAL FILENAME

# Setup neighbor style
neighbor 1.0 nsq
neigh_modify once no every 1 delay 0 check yes

# Setup minimization style
min_style	     cg
min_modify	     dmax ${dmax} line quadratic
min_modify	     dmax 0.01 line quadratic

# Setup output
thermo		10
thermo_style custom step temp pe press pxx pyy pzz pxy pxz pyz lx ly lz vol fnorm
thermo_modify norm no

# Positive deformation

variable delta equal ${up}*${len0}
variable delta equal 1e-05*${len0}
variable delta equal 1e-05*16.3600005818174
variable deltaxy equal ${up}*xy
variable deltaxy equal 1e-05*xy
variable deltaxz equal ${up}*xz
variable deltaxz equal 1e-05*xz
variable deltayz equal ${up}*yz
variable deltayz equal 1e-05*yz
if "${dir} == 1" then    "change_box all x delta 0 ${delta} xy delta ${deltaxy} xz delta ${deltaxz} remap units box"
if "${dir} == 2" then    "change_box all y delta 0 ${delta} yz delta ${deltayz} remap units box"
if "${dir} == 3" then    "change_box all z delta 0 ${delta} remap units box"
if "${dir} == 4" then    "change_box all yz delta ${delta} remap units box"
change_box all yz delta ${delta} remap units box
change_box all yz delta 0.000163600005818174 remap units box
Changing box ...
  triclinic box = (4.1383628e-15 6.1949063e-15 8.3344861e-15) to (8.1800003 12.27 16.360001) with tilt (0 0 0.00016360001)
if "${dir} == 5" then    "change_box all xz delta ${delta} remap units box"
if "${dir} == 6" then    "change_box all xy delta ${delta} remap units box"

# Relax atoms positions

minimize ${etol} ${ftol} ${maxiter} ${maxeval}
minimize 0 ${ftol} ${maxiter} ${maxeval}
minimize 0 1e-10 ${maxiter} ${maxeval}
minimize 0 1e-10 10000 ${maxeval}
minimize 0 1e-10 10000 50000
Neighbor list info ...
  update: every = 1 steps, delay = 0 steps, check = yes
  max neighbors/atom: 2000, page size: 100000
  master list distance cutoff = 6.995011
  ghost atom cutoff = 6.995011
  1 neighbor lists, perpetual/occasional/extra = 1 0 0
  (1) pair eam/alloy, perpetual
      attributes: half, newton on
      pair build: half/nsq/newton
      stencil: none
      bin: none
Per MPI rank memory allocation (min/avg/max) = 4.448 | 4.448 | 4.448 Mbytes
   Step          Temp          PotEng         Press           Pxx            Pyy            Pzz            Pxy            Pxz            Pyz             Lx             Ly             Lz           Volume         Fnorm     
         1   0             -273.6          0.00014362277  7.1758619e-05  0.00014115125  0.00021795842 -6.1757517e-07 -2.2113901e-06 -4.6419256      8.1800003      12.27          16.360001      1642.0305      0.00059602382
        10   0             -273.6          5.0150668e-05 -2.0688327e-05  4.6742251e-05  0.00012439808  6.2779266e-12  1.1689043e-11 -4.6419306      8.1800003      12.27          16.360001      1642.0305      1.4392754e-06
        20   0             -273.6          5.0149781e-05 -2.0689503e-05  4.6741487e-05  0.00012439736 -2.9153259e-12  4.3798643e-12 -4.6419306      8.1800003      12.27          16.360001      1642.0305      4.6996018e-09
        25   0             -273.6          5.0149805e-05 -2.0689491e-05  4.6741527e-05  0.00012439738  2.081076e-12   1.1358779e-11 -4.6419306      8.1800003      12.27          16.360001      1642.0305      7.935866e-11 
Loop time of 0.00781896 on 1 procs for 24 steps with 96 atoms

100.0% CPU use with 1 MPI tasks x no OpenMP threads

Minimization stats:
  Stopping criterion = force tolerance
  Energy initial, next-to-last, final = 
     -273.599997523956  -273.599997549433  -273.599997549432
  Force two-norm initial, final = 0.00059602382 7.935866e-11
  Force max component initial, final = 9.6780364e-05 1.3989601e-11
  Final line search alpha, max atom move = 1 1.3989601e-11
  Iterations, force evaluations = 24 48

MPI task timing breakdown:
Section |  min time  |  avg time  |  max time  |%varavg| %total
---------------------------------------------------------------
Pair    | 0.0074821  | 0.0074821  | 0.0074821  |   0.0 | 95.69
Neigh   | 0          | 0          | 0          |   0.0 |  0.00
Comm    | 0.00018249 | 0.00018249 | 0.00018249 |   0.0 |  2.33
Output  | 2.3779e-05 | 2.3779e-05 | 2.3779e-05 |   0.0 |  0.30
Modify  | 0          | 0          | 0          |   0.0 |  0.00
Other   |            | 0.0001306  |            |       |  1.67

Nlocal:             96 ave          96 max          96 min
Histogram: 1 0 0 0 0 0 0 0 0 0
Nghost:            976 ave         976 max         976 min
Histogram: 1 0 0 0 0 0 0 0 0 0
Neighs:           3744 ave        3744 max        3744 min
Histogram: 1 0 0 0 0 0 0 0 0 0

Total # of neighbors = 3744
Ave neighs/atom = 39
Neighbor list builds = 0
Dangerous builds = 0

# Obtain new stress tensor

variable tmp equal pe
variable e1 equal ${tmp}
variable e1 equal -273.599997549432
variable tmp equal press
variable p1 equal ${tmp}
variable p1 equal 5.01498046808338e-05
variable tmp equal pxx
variable pxx1 equal ${tmp}
variable pxx1 equal -2.06894908054158e-05
variable tmp equal pyy
variable pyy1 equal ${tmp}
variable pyy1 equal 4.67415274858068e-05
variable tmp equal pzz
variable pzz1 equal ${tmp}
variable pzz1 equal 0.00012439737736211
variable tmp equal pxy
variable pxy1 equal ${tmp}
variable pxy1 equal 2.08107596882725e-12
variable tmp equal pxz
variable pxz1 equal ${tmp}
variable pxz1 equal 1.13587788466768e-11
variable tmp equal pyz
variable pyz1 equal ${tmp}
variable pyz1 equal -4.64193055489152

# Compute elastic constant from pressure tensor

variable C1pos equal ${d1}
variable C1pos equal 0.00020689013550969
variable C2pos equal ${d2}
variable C2pos equal -0.000467419537687028
variable C3pos equal ${d3}
variable C3pos equal -0.00124397833468966
variable C4pos equal ${d4}
variable C4pos equal 46.4193055488834
variable C5pos equal ${d5}
variable C5pos equal -1.07121981064637e-10
variable C6pos equal ${d6}
variable C6pos equal 8.7762333455627e-12

# Combine positive and negative

variable C1${dir} equal 0.5*(${C1neg}+${C1pos})
variable C14 equal 0.5*(${C1neg}+${C1pos})
variable C14 equal 0.5*(-0.000206890156468553+${C1pos})
variable C14 equal 0.5*(-0.000206890156468553+0.00020689013550969)
variable C2${dir} equal 0.5*(${C2neg}+${C2pos})
variable C24 equal 0.5*(${C2neg}+${C2pos})
variable C24 equal 0.5*(0.000467419302243622+${C2pos})
variable C24 equal 0.5*(0.000467419302243622+-0.000467419537687028)
variable C3${dir} equal 0.5*(${C3neg}+${C3pos})
variable C34 equal 0.5*(${C3neg}+${C3pos})
variable C34 equal 0.5*(0.00124397813025502+${C3pos})
variable C34 equal 0.5*(0.00124397813025502+-0.00124397833468966)
variable C4${dir} equal 0.5*(${C4neg}+${C4pos})
variable C44 equal 0.5*(${C4neg}+${C4pos})
variable C44 equal 0.5*(46.4193055491085+${C4pos})
variable C44 equal 0.5*(46.4193055491085+46.4193055488834)
variable C5${dir} equal 0.5*(${C5neg}+${C5pos})
variable C54 equal 0.5*(${C5neg}+${C5pos})
variable C54 equal 0.5*(-4.48172629353343e-11+${C5pos})
variable C54 equal 0.5*(-4.48172629353343e-11+-1.07121981064637e-10)
variable C6${dir} equal 0.5*(${C6neg}+${C6pos})
variable C64 equal 0.5*(${C6neg}+${C6pos})
variable C64 equal 0.5*(-8.95374684066698e-11+${C6pos})
variable C64 equal 0.5*(-8.95374684066698e-11+8.7762333455627e-12)

# Delete dir to make sure it is not reused

variable dir delete

# uxz Perturbation

variable dir equal 5
include displace.mod
# NOTE: This script should not need to be
# modified. See in.elastic for more info.
#
# Find which reference length to use

if "${dir} == 1" then    "variable len0 equal ${lx0}"
if "${dir} == 2" then    "variable len0 equal ${ly0}"
if "${dir} == 3" then    "variable len0 equal ${lz0}"
if "${dir} == 4" then    "variable len0 equal ${lz0}"
if "${dir} == 5" then    "variable len0 equal ${lz0}"
variable len0 equal ${lz0}
variable len0 equal 16.3600005818174
if "${dir} == 6" then    "variable len0 equal ${ly0}"

# Reset box and simulation parameters

clear
box tilt large

The 'box' command has been removed and will be ignored

read_restart restart.equil
Reading restart file ...
  restart file = 2 Aug 2023, LAMMPS = 2 Aug 2023
  restoring atom style atomic from restart
  triclinic box = (4.1383628e-15 6.1949063e-15 8.3344861e-15) to (8.1800003 12.27 16.360001) with tilt (0 0 0)
  1 by 1 by 1 MPI processor grid
  pair style eam/alloy stores no restart info
  96 atoms
  read_restart CPU = 0.000 seconds
include potential.mod
# NOTE: This script can be modified for different pair styles
# See in.elastic for more info.

#Provide potential
pair_style      eam/alloy ### TYPE OF POTENTIAL (eam (OR) eam/alloy)
pair_coeff      *  *  CuAg.eam.alloy Ag ### POTENTIAL FILENAME

# Setup neighbor style
neighbor 1.0 nsq
neigh_modify once no every 1 delay 0 check yes

# Setup minimization style
min_style	     cg
min_modify	     dmax ${dmax} line quadratic
min_modify	     dmax 0.01 line quadratic

# Setup output
thermo		10
thermo_style custom step temp pe press pxx pyy pzz pxy pxz pyz lx ly lz vol fnorm
thermo_modify norm no

# Negative deformation

variable delta equal -${up}*${len0}
variable delta equal -1e-05*${len0}
variable delta equal -1e-05*16.3600005818174
variable deltaxy equal -${up}*xy
variable deltaxy equal -1e-05*xy
variable deltaxz equal -${up}*xz
variable deltaxz equal -1e-05*xz
variable deltayz equal -${up}*yz
variable deltayz equal -1e-05*yz
if "${dir} == 1" then    "change_box all x delta 0 ${delta} xy delta ${deltaxy} xz delta ${deltaxz} remap units box"
if "${dir} == 2" then    "change_box all y delta 0 ${delta} yz delta ${deltayz} remap units box"
if "${dir} == 3" then    "change_box all z delta 0 ${delta} remap units box"
if "${dir} == 4" then    "change_box all yz delta ${delta} remap units box"
if "${dir} == 5" then    "change_box all xz delta ${delta} remap units box"
change_box all xz delta ${delta} remap units box
change_box all xz delta -0.000163600005818174 remap units box
Changing box ...
  triclinic box = (4.1383628e-15 6.1949063e-15 8.3344861e-15) to (8.1800003 12.27 16.360001) with tilt (0 -0.00016360001 0)
if "${dir} == 6" then    "change_box all xy delta ${delta} remap units box"

# Relax atoms positions

minimize ${etol} ${ftol} ${maxiter} ${maxeval}
minimize 0 ${ftol} ${maxiter} ${maxeval}
minimize 0 1e-10 ${maxiter} ${maxeval}
minimize 0 1e-10 10000 ${maxeval}
minimize 0 1e-10 10000 50000
Neighbor list info ...
  update: every = 1 steps, delay = 0 steps, check = yes
  max neighbors/atom: 2000, page size: 100000
  master list distance cutoff = 6.995011
  ghost atom cutoff = 6.995011
  1 neighbor lists, perpetual/occasional/extra = 1 0 0
  (1) pair eam/alloy, perpetual
      attributes: half, newton on
      pair build: half/nsq/newton
      stencil: none
      bin: none
Per MPI rank memory allocation (min/avg/max) = 4.448 | 4.448 | 4.448 Mbytes
   Step          Temp          PotEng         Press           Pxx            Pyy            Pzz            Pxy            Pxz            Pyz             Lx             Ly             Lz           Volume         Fnorm     
         1   0             -273.6          0.0001436227   0.00013918957  7.3720079e-05  0.00021795844 -6.1771145e-07  4.6419283      4.998732e-06   8.1800003      12.27          16.360001      1642.0305      0.0005960248 
        10   0             -273.6          5.0150665e-05  4.6742671e-05 -2.0688756e-05  0.00012439808  2.4428734e-12  4.6419306     -4.1786023e-11  8.1800003      12.27          16.360001      1642.0305      1.4393046e-06
        20   0             -273.6          5.0149808e-05  4.6741509e-05 -2.0689462e-05  0.00012439738  2.7739922e-12  4.6419306     -5.9623899e-12  8.1800003      12.27          16.360001      1642.0305      4.6997085e-09
        25   0             -273.6          5.0149832e-05  4.6741531e-05 -2.0689436e-05  0.0001243974  -4.6879219e-12  4.6419306     -2.5179004e-12  8.1800003      12.27          16.360001      1642.0305      7.9569523e-11
Loop time of 0.00758022 on 1 procs for 24 steps with 96 atoms

100.0% CPU use with 1 MPI tasks x no OpenMP threads

Minimization stats:
  Stopping criterion = force tolerance
  Energy initial, next-to-last, final = 
     -273.599997523955  -273.599997549432  -273.599997549433
  Force two-norm initial, final = 0.0005960248 7.9569523e-11
  Force max component initial, final = 9.6780737e-05 1.4335451e-11
  Final line search alpha, max atom move = 1 1.4335451e-11
  Iterations, force evaluations = 24 48

MPI task timing breakdown:
Section |  min time  |  avg time  |  max time  |%varavg| %total
---------------------------------------------------------------
Pair    | 0.0072665  | 0.0072665  | 0.0072665  |   0.0 | 95.86
Neigh   | 0          | 0          | 0          |   0.0 |  0.00
Comm    | 0.00017449 | 0.00017449 | 0.00017449 |   0.0 |  2.30
Output  | 2.3728e-05 | 2.3728e-05 | 2.3728e-05 |   0.0 |  0.31
Modify  | 0          | 0          | 0          |   0.0 |  0.00
Other   |            | 0.0001155  |            |       |  1.52

Nlocal:             96 ave          96 max          96 min
Histogram: 1 0 0 0 0 0 0 0 0 0
Nghost:            976 ave         976 max         976 min
Histogram: 1 0 0 0 0 0 0 0 0 0
Neighs:           3744 ave        3744 max        3744 min
Histogram: 1 0 0 0 0 0 0 0 0 0

Total # of neighbors = 3744
Ave neighs/atom = 39
Neighbor list builds = 0
Dangerous builds = 0

# Obtain new stress tensor

variable tmp equal pxx
variable pxx1 equal ${tmp}
variable pxx1 equal 4.67415305428896e-05
variable tmp equal pyy
variable pyy1 equal ${tmp}
variable pyy1 equal -2.06894357100085e-05
variable tmp equal pzz
variable pzz1 equal ${tmp}
variable pzz1 equal 0.000124397402398293
variable tmp equal pxy
variable pxy1 equal ${tmp}
variable pxy1 equal -4.68792194401234e-12
variable tmp equal pxz
variable pxz1 equal ${tmp}
variable pxz1 equal 4.64193055491153
variable tmp equal pyz
variable pyz1 equal ${tmp}
variable pyz1 equal -2.51790035251393e-12

# Compute elastic constant from pressure tensor

variable C1neg equal ${d1}
variable C1neg equal 0.000467420077973364
variable C2neg equal ${d2}
variable C2neg equal -0.000206890094271125
variable C3neg equal ${d3}
variable C3neg equal 0.00124397858505149
variable C4neg equal ${d4}
variable C4neg equal 6.5745427743314e-12
variable C5neg equal ${d5}
variable C5neg equal 46.4193055491088
variable C6neg equal ${d6}
variable C6neg equal -7.64662124739586e-11

# Reset box and simulation parameters

clear
box tilt large

The 'box' command has been removed and will be ignored

read_restart restart.equil
Reading restart file ...
  restart file = 2 Aug 2023, LAMMPS = 2 Aug 2023
  restoring atom style atomic from restart
  triclinic box = (4.1383628e-15 6.1949063e-15 8.3344861e-15) to (8.1800003 12.27 16.360001) with tilt (0 0 0)
  1 by 1 by 1 MPI processor grid
  pair style eam/alloy stores no restart info
  96 atoms
  read_restart CPU = 0.000 seconds
include potential.mod
# NOTE: This script can be modified for different pair styles
# See in.elastic for more info.

#Provide potential
pair_style      eam/alloy ### TYPE OF POTENTIAL (eam (OR) eam/alloy)
pair_coeff      *  *  CuAg.eam.alloy Ag ### POTENTIAL FILENAME

# Setup neighbor style
neighbor 1.0 nsq
neigh_modify once no every 1 delay 0 check yes

# Setup minimization style
min_style	     cg
min_modify	     dmax ${dmax} line quadratic
min_modify	     dmax 0.01 line quadratic

# Setup output
thermo		10
thermo_style custom step temp pe press pxx pyy pzz pxy pxz pyz lx ly lz vol fnorm
thermo_modify norm no

# Positive deformation

variable delta equal ${up}*${len0}
variable delta equal 1e-05*${len0}
variable delta equal 1e-05*16.3600005818174
variable deltaxy equal ${up}*xy
variable deltaxy equal 1e-05*xy
variable deltaxz equal ${up}*xz
variable deltaxz equal 1e-05*xz
variable deltayz equal ${up}*yz
variable deltayz equal 1e-05*yz
if "${dir} == 1" then    "change_box all x delta 0 ${delta} xy delta ${deltaxy} xz delta ${deltaxz} remap units box"
[...]

# Relax atoms positions

minimize ${etol} ${ftol} ${maxiter} ${maxeval}
minimize 0 ${ftol} ${maxiter} ${maxeval}
minimize 0 1e-10 ${maxiter} ${maxeval}
minimize 0 1e-10 10000 ${maxeval}
minimize 0 1e-10 10000 50000
Neighbor list info ...
  update: every = 1 steps, delay = 0 steps, check = yes
  max neighbors/atom: 2000, page size: 100000
  master list distance cutoff = 6.995011
  ghost atom cutoff = 6.995011
  1 neighbor lists, perpetual/occasional/extra = 1 0 0
  (1) pair eam/alloy, perpetual
      attributes: half, newton on
      pair build: half/nsq/newton
      stencil: none
      bin: none
Per MPI rank memory allocation (min/avg/max) = 4.448 | 4.448 | 4.448 Mbytes
   Step          Temp          PotEng         Press           Pxx            Pyy            Pzz            Pxy            Pxz            Pyz             Lx             Ly             Lz           Volume         Fnorm     
         1   0             -273.6          0.00014362271  0.00013918968  0.00021880697  7.2871468e-05  4.6419299     -2.211501e-06   4.998691e-06   8.1800003      12.27          16.360001      1642.0305      0.00059602489
        10   0             -273.6          5.0150667e-05  4.6742666e-05  0.00012439812 -2.0688783e-05  4.6419306      2.7516661e-12 -2.8657709e-11  8.1800003      12.27          16.360001      1642.0305      1.4392986e-06
        20   0             -273.6          5.0149801e-05  4.6741498e-05  0.00012439739 -2.0689489e-05  4.6419306     -5.6716498e-12  2.8341725e-12  8.1800003      12.27          16.360001      1642.0305      4.7001711e-09
        25   0             -273.6          5.0149822e-05  4.6741512e-05  0.00012439742 -2.0689467e-05  4.6419306      7.1907932e-12 -1.0818056e-11  8.1800003      12.27          16.360001      1642.0305      7.9252652e-11
Loop time of 0.00765686 on 1 procs for 24 steps with 96 atoms

100.0% CPU use with 1 MPI tasks x no OpenMP threads

Minimization stats:
  Stopping criterion = force tolerance
  Energy initial, next-to-last, final = 
     -273.599997523955  -273.599997549432  -273.599997549433
  Force two-norm initial, final = 0.00059602489 7.9252652e-11
  Force max component initial, final = 9.6780249e-05 1.4340543e-11
  Final line search alpha, max atom move = 1 1.4340543e-11
  Iterations, force evaluations = 24 48

MPI task timing breakdown:
Section |  min time  |  avg time  |  max time  |%varavg| %total
---------------------------------------------------------------
Pair    | 0.0073267  | 0.0073267  | 0.0073267  |   0.0 | 95.69
Neigh   | 0          | 0          | 0          |   0.0 |  0.00
Comm    | 0.00017748 | 0.00017748 | 0.00017748 |   0.0 |  2.32
Output  | 2.3172e-05 | 2.3172e-05 | 2.3172e-05 |   0.0 |  0.30
Modify  | 0          | 0          | 0          |   0.0 |  0.00
Other   |            | 0.0001295  |            |       |  1.69

Nlocal:             96 ave          96 max          96 min
Histogram: 1 0 0 0 0 0 0 0 0 0
Nghost:            976 ave         976 max         976 min
Histogram: 1 0 0 0 0 0 0 0 0 0
Neighs:           3744 ave        3744 max        3744 min
Histogram: 1 0 0 0 0 0 0 0 0 0

Total # of neighbors = 3744
Ave neighs/atom = 39
Neighbor list builds = 0
Dangerous builds = 0

# Obtain new stress tensor

variable tmp equal pxx
variable pxx1 equal ${tmp}
variable pxx1 equal 4.67415117488864e-05
variable tmp equal pyy
variable pyy1 equal ${tmp}
variable pyy1 equal 0.000124397422350894
variable tmp equal pzz
variable pzz1 equal ${tmp}
variable pzz1 equal -2.06894670583841e-05
variable tmp equal pxy
variable pxy1 equal ${tmp}
variable pxy1 equal 4.64193055490526
variable tmp equal pxz
variable pxz1 equal ${tmp}
variable pxz1 equal 7.19079316240177e-12
variable tmp equal pyz
variable pyz1 equal ${tmp}
variable pyz1 equal -1.08180558578091e-11

# Compute elastic constant from pressure tensor

variable C1neg equal ${d1}
variable C1neg equal 0.000467419890033332
variable C2neg equal ${d2}
variable C2neg equal 0.0012439784863379
variable C3neg equal ${d3}
variable C3neg equal -0.000206890109515283
variable C4neg equal ${d4}
variable C4neg equal -7.64270122786203e-11
variable C5neg equal ${d5}
variable C5neg equal 6.54421242218867e-11
variable C6neg equal ${d6}
variable C6neg equal 46.419305549023

# Reset box and simulation parameters

clear
box tilt large

The 'box' command has been removed and will be ignored

read_restart restart.equil
Reading restart file ...
  restart file = 2 Aug 2023, LAMMPS = 2 Aug 2023
  restoring atom style atomic from restart
  triclinic box = (4.1383628e-15 6.1949063e-15 8.3344861e-15) to (8.1800003 12.27 16.360001) with tilt (0 0 0)
  1 by 1 by 1 MPI processor grid
  pair style eam/alloy stores no restart info
  96 atoms
  read_restart CPU = 0.000 seconds
include potential.mod
# NOTE: This script can be modified for different pair styles
# See in.elastic for more info.

#Provide potential
pair_style      eam/alloy ### TYPE OF POTENTIAL (eam (OR) eam/alloy)
pair_coeff      *  *  CuAg.eam.alloy Ag ### POTENTIAL FILENAME

# Setup neighbor style
neighbor 1.0 nsq
neigh_modify once no every 1 delay 0 check yes

# Setup minimization style
min_style	     cg
min_modify	     dmax ${dmax} line quadratic
min_modify	     dmax 0.01 line quadratic

# Setup output
thermo		10
thermo_style custom step temp pe press pxx pyy pzz pxy pxz pyz lx ly lz vol fnorm
thermo_modify norm no

# Positive deformation

variable delta equal ${up}*${len0}
variable delta equal 1e-05*${len0}
variable delta equal 1e-05*12.270000436363
variable deltaxy equal ${up}*xy
variable deltaxy equal 1e-05*xy
variable deltaxz equal ${up}*xz
variable deltaxz equal 1e-05*xz
variable deltayz equal ${up}*yz
variable deltayz equal 1e-05*yz
if "${dir} == 1" then    "change_box all x delta 0 ${delta} xy delta ${deltaxy} xz delta ${deltaxz} remap units box"
if "${dir} == 2" then    "change_box all y delta 0 ${delta} yz delta ${deltayz} remap units box"
if "${dir} == 3" then    "change_box all z delta 0 ${delta} remap units box"
if "${dir} == 4" then    "change_box all yz delta ${delta} remap units box"
if "${dir} == 5" then    "change_box all xz delta ${delta} remap units box"
if "${dir} == 6" then    "change_box all xy delta ${delta} remap units box"
change_box all xy delta ${delta} remap units box
change_box all xy delta 0.00012270000436363 remap units box
Changing box ...
  triclinic box = (4.1383628e-15 6.1949063e-15 8.3344861e-15) to (8.1800003 12.27 16.360001) with tilt (0.0001227 0 0)

# Relax atoms positions

minimize ${etol} ${ftol} ${maxiter} ${maxeval}
minimize 0 ${ftol} ${maxiter} ${maxeval}
minimize 0 1e-10 ${maxiter} ${maxeval}
minimize 0 1e-10 10000 ${maxeval}
minimize 0 1e-10 10000 50000
Neighbor list info ...
  update: every = 1 steps, delay = 0 steps, check = yes
  max neighbors/atom: 2000, page size: 100000
  master list distance cutoff = 6.995011
  ghost atom cutoff = 6.995011
  1 neighbor lists, perpetual/occasional/extra = 1 0 0
  (1) pair eam/alloy, perpetual
      attributes: half, newton on
      pair build: half/nsq/newton
      stencil: none
      bin: none
Per MPI rank memory allocation (min/avg/max) = 4.448 | 4.448 | 4.448 Mbytes
   Step          Temp          PotEng         Press           Pxx            Pyy            Pzz            Pxy            Pxz            Pyz             Lx             Ly             Lz           Volume         Fnorm     
         1   0             -273.6          0.0001436229   0.00013918969  0.00021880724  7.2871756e-05 -4.6419312     -2.2114854e-06  4.9990034e-06  8.1800003      12.27          16.360001      1642.0305      0.00059602486
        10   0             -273.6          5.0150701e-05  4.6742696e-05  0.00012439816 -2.0688751e-05 -4.6419306     -1.0693001e-11 -2.4327719e-11  8.1800003      12.27          16.360001      1642.0305      1.4392418e-06
        20   0             -273.6          5.0149812e-05  4.6741513e-05  0.0001243974  -2.0689473e-05 -4.6419306     -1.7718588e-11  1.2770583e-12  8.1800003      12.27          16.360001      1642.0305      4.6989917e-09
        25   0             -273.6          5.0149816e-05  4.6741502e-05  0.00012439742 -2.0689475e-05 -4.6419306     -9.1887063e-12  2.4597744e-12  8.1800003      12.27          16.360001      1642.0305      7.9372672e-11
Loop time of 0.00789586 on 1 procs for 24 steps with 96 atoms

100.0% CPU use with 1 MPI tasks x no OpenMP threads

Minimization stats:
  Stopping criterion = force tolerance
  Energy initial, next-to-last, final = 
     -273.599997523955  -273.599997549432  -273.599997549433
  Force two-norm initial, final = 0.00059602486 7.9372672e-11
  Force max component initial, final = 9.6780257e-05 1.2694096e-11
  Final line search alpha, max atom move = 1 1.2694096e-11
  Iterations, force evaluations = 24 48

MPI task timing breakdown:
Section |  min time  |  avg time  |  max time  |%varavg| %total
---------------------------------------------------------------
Pair    | 0.0075613  | 0.0075613  | 0.0075613  |   0.0 | 95.76
Neigh   | 0          | 0          | 0          |   0.0 |  0.00
Comm    | 0.00019369 | 0.00019369 | 0.00019369 |   0.0 |  2.45
Output  | 2.4441e-05 | 2.4441e-05 | 2.4441e-05 |   0.0 |  0.31
Modify  | 0          | 0          | 0          |   0.0 |  0.00
Other   |            | 0.0001164  |            |       |  1.47

Nlocal:             96 ave          96 max          96 min
Histogram: 1 0 0 0 0 0 0 0 0 0
Nghost:            976 ave         976 max         976 min
Histogram: 1 0 0 0 0 0 0 0 0 0
Neighs:           3744 ave        3744 max        3744 min
Histogram: 1 0 0 0 0 0 0 0 0 0

Total # of neighbors = 3744
Ave neighs/atom = 39
Neighbor list builds = 0
Dangerous builds = 0

# Obtain new stress tensor

variable tmp equal pe
variable e1 equal ${tmp}
variable e1 equal -273.599997549433
variable tmp equal press
variable p1 equal ${tmp}
variable p1 equal 5.01498161489674e-05
variable tmp equal pxx
variable pxx1 equal ${tmp}
variable pxx1 equal 4.67415018872606e-05
variable tmp equal pyy
variable pyy1 equal ${tmp}
variable pyy1 equal 0.000124397422053205
variable tmp equal pzz
variable pzz1 equal ${tmp}
variable pzz1 equal -2.06894754935632e-05
variable tmp equal pxy
variable pxy1 equal ${tmp}
variable pxy1 equal -4.6419305549056
variable tmp equal pxz
variable pxz1 equal ${tmp}
variable pxz1 equal -9.18870632777045e-12
variable tmp equal pyz
variable pyz1 equal ${tmp}
variable pyz1 equal 2.45977437335461e-12

# Compute elastic constant from pressure tensor

variable C1pos equal ${d1}
variable C1pos equal -0.000467419791417074
variable C2pos equal ${d2}
variable C2pos equal -0.00124397848336101
variable C3pos equal ${d3}
variable C3pos equal 0.000206890193867074
variable C4pos equal ${d4}
variable C4pos equal -5.63512900330168e-11
variable C5pos equal ${d5}
variable C5pos equal 9.83528706798355e-11
variable C6pos equal ${d6}
variable C6pos equal 46.4193055490856

# Combine positive and negative

variable C1${dir} equal 0.5*(${C1neg}+${C1pos})
variable C16 equal 0.5*(${C1neg}+${C1pos})
variable C16 equal 0.5*(0.000467419890033332+${C1pos})
variable C16 equal 0.5*(0.000467419890033332+-0.000467419791417074)
variable C2${dir} equal 0.5*(${C2neg}+${C2pos})
variable C26 equal 0.5*(${C2neg}+${C2pos})
variable C26 equal 0.5*(0.0012439784863379+${C2pos})
variable C26 equal 0.5*(0.0012439784863379+-0.00124397848336101)
variable C3${dir} equal 0.5*(${C3neg}+${C3pos})
variable C36 equal 0.5*(${C3neg}+${C3pos})
variable C36 equal 0.5*(-0.000206890109515283+${C3pos})
variable C36 equal 0.5*(-0.000206890109515283+0.000206890193867074)
variable C4${dir} equal 0.5*(${C4neg}+${C4pos})
variable C46 equal 0.5*(${C4neg}+${C4pos})
variable C46 equal 0.5*(-7.64270122786203e-11+${C4pos})
variable C46 equal 0.5*(-7.64270122786203e-11+-5.63512900330168e-11)
variable C5${dir} equal 0.5*(${C5neg}+${C5pos})
variable C56 equal 0.5*(${C5neg}+${C5pos})
variable C56 equal 0.5*(6.54421242218867e-11+${C5pos})
variable C56 equal 0.5*(6.54421242218867e-11+9.83528706798355e-11)
variable C6${dir} equal 0.5*(${C6neg}+${C6pos})
variable C66 equal 0.5*(${C6neg}+${C6pos})
variable C66 equal 0.5*(46.419305549023+${C6pos})
variable C66 equal 0.5*(46.419305549023+46.4193055490856)

# Delete dir to make sure it is not reused

variable dir delete

# Output final values

variable C11all equal ${C11}
variable C11all equal 124.238214669537
variable C22all equal ${C22}
variable C22all equal 124.238214667548
variable C33all equal ${C33}
variable C33all equal 124.238214669481

variable C12all equal 0.5*(${C12}+${C21})
variable C12all equal 0.5*(93.8727316157752+${C21})
variable C12all equal 0.5*(93.8727316157752+93.8727316169745)
variable C13all equal 0.5*(${C13}+${C31})
variable C13all equal 0.5*(93.8727316169948+${C31})
variable C13all equal 0.5*(93.8727316169948+93.8727316170749)
variable C23all equal 0.5*(${C23}+${C32})
variable C23all equal 0.5*(93.8727316170039+${C32})
variable C23all equal 0.5*(93.8727316170039+93.8727316156471)

variable C44all equal ${C44}
variable C44all equal 46.419305548996
variable C55all equal ${C55}
variable C55all equal 46.4193055491553
variable C66all equal ${C66}
variable C66all equal 46.4193055490543

variable C14all equal 0.5*(${C14}+${C41})
variable C14all equal 0.5*(-1.04794315044197e-11+${C41})
variable C14all equal 0.5*(-1.04794315044197e-11+-1.94129265518387e-11)
variable C15all equal 0.5*(${C15}+${C51})
variable C15all equal 0.5*(3.43584880490265e-10+${C51})
variable C15all equal 0.5*(3.43584880490265e-10+-3.82888528986299e-11)
variable C16all equal 0.5*(${C16}+${C61})
variable C16all equal 0.5*(4.93081289774239e-11+${C61})
variable C16all equal 0.5*(4.93081289774239e-11+-9.56791775185457e-11)

variable C24all equal 0.5*(${C24}+${C42})
variable C24all equal 0.5*(-1.17721702991205e-10+${C42})
variable C24all equal 0.5*(-1.17721702991205e-10+-7.76205784618849e-11)
variable C25all equal 0.5*(${C25}+${C52})
variable C25all equal 0.5*(1.58336113507572e-10+${C52})
variable C25all equal 0.5*(1.58336113507572e-10+-4.38701620167107e-12)
variable C26all equal 0.5*(${C26}+${C62})
variable C26all equal 0.5*(1.48844500093281e-12+${C62})
variable C26all equal 0.5*(1.48844500093281e-12+3.66033754285745e-11)

variable C34all equal 0.5*(${C34}+${C43})
variable C34all equal 0.5*(-1.02217320003227e-10+${C43})
variable C34all equal 0.5*(-1.02217320003227e-10+6.88909413378584e-11)
variable C35all equal 0.5*(${C35}+${C53})
variable C35all equal 0.5*(2.37848030008349e-10+${C53})
variable C35all equal 0.5*(2.37848030008349e-10+-5.26466694043281e-11)
variable C36all equal 0.5*(${C36}+${C63})
variable C36all equal 0.5*(4.21758954936022e-11+${C63})
variable C36all equal 0.5*(4.21758954936022e-11+2.8645420306849e-12)

variable C45all equal 0.5*(${C45}+${C54})
variable C45all equal 0.5*(-1.66041911035943e-11+${C54})
variable C45all equal 0.5*(-1.66041911035943e-11+-7.59696219999857e-11)
variable C46all equal 0.5*(${C46}+${C64})
variable C46all equal 0.5*(-6.63891511558185e-11+${C64})
variable C46all equal 0.5*(-6.63891511558185e-11+-4.03806175305535e-11)
variable C56all equal 0.5*(${C56}+${C65})
variable C56all equal 0.5*(8.18974974508611e-11+${C65})
variable C56all equal 0.5*(8.18974974508611e-11+-1.25943603213106e-10)

# Average moduli for cubic crystals

variable C11cubic equal (${C11all}+${C22all}+${C33all})/3.0
variable C11cubic equal (124.238214669537+${C22all}+${C33all})/3.0
variable C11cubic equal (124.238214669537+124.238214667548+${C33all})/3.0
variable C11cubic equal (124.238214669537+124.238214667548+124.238214669481)/3.0
variable C12cubic equal (${C12all}+${C13all}+${C23all})/3.0
variable C12cubic equal (93.8727316163748+${C13all}+${C23all})/3.0
variable C12cubic equal (93.8727316163748+93.8727316170348+${C23all})/3.0
variable C12cubic equal (93.8727316163748+93.8727316170348+93.8727316163255)/3.0
variable C44cubic equal (${C44all}+${C55all}+${C66all})/3.0
variable C44cubic equal (46.419305548996+${C55all}+${C66all})/3.0
variable C44cubic equal (46.419305548996+46.4193055491553+${C66all})/3.0
variable C44cubic equal (46.419305548996+46.4193055491553+46.4193055490543)/3.0

variable bulkmodulus equal (${C11cubic}+2*${C12cubic})/3.0
variable bulkmodulus equal (124.238214668855+2*${C12cubic})/3.0
variable bulkmodulus equal (124.238214668855+2*93.8727316165784)/3.0
variable shearmodulus1 equal ${C44cubic}
variable shearmodulus1 equal 46.4193055490685
variable shearmodulus2 equal (${C11cubic}-${C12cubic})/2.0
variable shearmodulus2 equal (124.238214668855-${C12cubic})/2.0
variable shearmodulus2 equal (124.238214668855-93.8727316165784)/2.0
variable poissonratio equal 1.0/(1.0+${C11cubic}/${C12cubic})
variable poissonratio equal 1.0/(1.0+124.238214668855/${C12cubic})
variable poissonratio equal 1.0/(1.0+124.238214668855/93.8727316165784)

# For Stillinger-Weber silicon, the analytical results
# are known to be (E. R. Cowley, 1988):
#               C11 = 151.4 GPa
#               C12 = 76.4 GPa
#               C44 = 56.4 GPa

print "========================================="
=========================================
print "Components of the Elastic Constant Tensor"
Components of the Elastic Constant Tensor
print "========================================="
=========================================

print "Elastic Constant C11all = ${C11all} ${cunits}"
Elastic Constant C11all = 124.238214669537 GPa
print "Elastic Constant C22all = ${C22all} ${cunits}"
Elastic Constant C22all = 124.238214667548 GPa
print "Elastic Constant C33all = ${C33all} ${cunits}"
Elastic Constant C33all = 124.238214669481 GPa

print "Elastic Constant C12all = ${C12all} ${cunits}"
Elastic Constant C12all = 93.8727316163748 GPa
print "Elastic Constant C13all = ${C13all} ${cunits}"
Elastic Constant C13all = 93.8727316170348 GPa
print "Elastic Constant C23all = ${C23all} ${cunits}"
Elastic Constant C23all = 93.8727316163255 GPa

print "Elastic Constant C44all = ${C44all} ${cunits}"
Elastic Constant C44all = 46.419305548996 GPa
print "Elastic Constant C55all = ${C55all} ${cunits}"
Elastic Constant C55all = 46.4193055491553 GPa
print "Elastic Constant C66all = ${C66all} ${cunits}"
Elastic Constant C66all = 46.4193055490543 GPa

print "Elastic Constant C14all = ${C14all} ${cunits}"
Elastic Constant C14all = -1.49461790281292e-11 GPa
print "Elastic Constant C15all = ${C15all} ${cunits}"
Elastic Constant C15all = 1.52648013795818e-10 GPa
print "Elastic Constant C16all = ${C16all} ${cunits}"
Elastic Constant C16all = -2.31855242705609e-11 GPa

print "Elastic Constant C24all = ${C24all} ${cunits}"
Elastic Constant C24all = -9.76711407265449e-11 GPa
print "Elastic Constant C25all = ${C25all} ${cunits}"
Elastic Constant C25all = 7.69745486529505e-11 GPa
print "Elastic Constant C26all = ${C26all} ${cunits}"
Elastic Constant C26all = 1.90459102147537e-11 GPa

print "Elastic Constant C34all = ${C34all} ${cunits}"
Elastic Constant C34all = -1.66631893326843e-11 GPa
print "Elastic Constant C35all = ${C35all} ${cunits}"
Elastic Constant C35all = 9.26006803020105e-11 GPa
print "Elastic Constant C36all = ${C36all} ${cunits}"
Elastic Constant C36all = 2.25202187621435e-11 GPa

print "Elastic Constant C45all = ${C45all} ${cunits}"
Elastic Constant C45all = -4.628690655179e-11 GPa
print "Elastic Constant C46all = ${C46all} ${cunits}"
Elastic Constant C46all = -5.3384884343186e-11 GPa
print "Elastic Constant C56all = ${C56all} ${cunits}"
Elastic Constant C56all = -2.20230528811224e-11 GPa

print "========================================="
=========================================
print "Average properties for a cubic crystal"
Average properties for a cubic crystal
print "========================================="
=========================================

print "Bulk Modulus = ${bulkmodulus} ${cunits}"
Bulk Modulus = 103.994559300671 GPa
print "Shear Modulus 1 = ${shearmodulus1} ${cunits}"
Shear Modulus 1 = 46.4193055490685 GPa
print "Shear Modulus 2 = ${shearmodulus2} ${cunits}"
Shear Modulus 2 = 15.1827415261383 GPa
print "Poisson Ratio = ${poissonratio}"
Poisson Ratio = 0.430389823231204
Total wall time: 0:00:01
