LAMMPS (2 Aug 2023 - Update 3)
#####################################################################################################################
# Course: Theory, Modelling, and Simulation of Microstructures (TMS)
# Tutors: Dr. Arun Prakash
# Description: Input file for Twin Fault Energy (TFE) of your element
# Originally created by Richard Glaze, 2014. Modified by S. Roy, 2018
######################################################################################################################

# --------------------- INITIALIZAITION ---------------------


clear
units		metal
dimension	3
boundary	p p s
atom_style	atomic
variable 	latparam1 equal 4.09000014545435    ### provide the lattice constant from your calculation
variable 	x_displace equal -1*(${latparam1}/sqrt(6))
variable 	x_displace equal -1*(4.09000014545435/sqrt(6))
variable 	xdim equal ${latparam1}*sqrt(6)/2*10
variable 	xdim equal 4.09000014545435*sqrt(6)/2*10
variable 	ydim equal ${latparam1}*sqrt(2)/2*10
variable 	ydim equal 4.09000014545435*sqrt(2)/2*10
variable 	atomjiggle equal 1.0e-5
variable 	Bx_displace equal 1.0

# --------------------- ATOM DEFINITION ---------------------
lattice		fcc ${latparam1}
lattice		fcc 4.09000014545435
Lattice spacing in x,y,z = 4.0900001 4.0900001 4.0900001
region		1 block -.001 ${xdim} -.001 ${ydim} -.001 16.5 units box
region		1 block -.001 50.0920670213607 -.001 ${ydim} -.001 16.5 units box
region		1 block -.001 50.0920670213607 -.001 28.9206683790474 -.001 16.5 units box
region 		2 block -.001 ${xdim} -.001 ${ydim} 16.5 36.5808 units box
region 		2 block -.001 50.0920670213607 -.001 ${ydim} 16.5 36.5808 units box
region 		2 block -.001 50.0920670213607 -.001 28.9206683790474 16.5 36.5808 units box
region 		3 block -.001 ${xdim} -.001 ${ydim} 19.5 36.5808 units box
region 		3 block -.001 50.0920670213607 -.001 ${ydim} 19.5 36.5808 units box
region 		3 block -.001 50.0920670213607 -.001 28.9206683790474 19.5 36.5808 units box
region		whole block 0 ${xdim} 0 ${ydim} 0 36.5808 units box
region		whole block 0 50.0920670213607 0 ${ydim} 0 36.5808 units box
region		whole block 0 50.0920670213607 0 28.9206683790474 0 36.5808 units box
#the -.001 in the -x and -y and lower limit of region 1 are only to overcome a simple numerical issue but can be considered 0
create_box 	1 whole
Created orthogonal box = (0 0 0) to (50.092067 28.920668 36.5808)
  1 by 1 by 1 MPI processor grid
lattice 	fcc ${latparam1} orient x 1 1 2 orient y -1 1 0 orient z -1 -1 1
lattice 	fcc 4.09000014545435 orient x 1 1 2 orient y -1 1 0 orient z -1 -1 1
Lattice spacing in x,y,z = 6.6789423 5.7841337 7.0840881
create_atoms	1 region 1
Created 1400 atoms
  using lattice units in orthogonal box = (0 0 -0.00365808) to (50.092067 28.920668 36.584458)
  create_atoms CPU = 0.001 seconds
lattice 	fcc ${latparam1} orient x 1 1 2 orient y -1 1 0 orient z -1 -1 1
lattice 	fcc 4.09000014545435 orient x 1 1 2 orient y -1 1 0 orient z -1 -1 1
Lattice spacing in x,y,z = 6.6789423 5.7841337 7.0840881
create_atoms 	1 region 2
Created 1800 atoms
  using lattice units in orthogonal box = (0 0 -0.00365808) to (50.092067 28.920668 36.584458)
  create_atoms CPU = 0.001 seconds

# --------------------- FORCE FIELDS ---------------------
#Provide potential
pair_style      eam/alloy ### --> TYPE OF POTENTIAL (eam (OR) eam/alloy)
pair_coeff      *  *  CuAg.eam.alloy Ag  ### POTENTIAL FILENAME


# --------------------- SETTINGS ---------------------

fix 		1 all setforce 0 0 NULL
min_style 	cg
minimize 	0.0 1e-8 20000 20000
Neighbor list info ...
  update: every = 1 steps, delay = 0 steps, check = yes
  max neighbors/atom: 2000, page size: 100000
  master list distance cutoff = 7.995011
  ghost atom cutoff = 7.995011
  binsize = 3.9975055, bins = 13 8 10
  1 neighbor lists, perpetual/occasional/extra = 1 0 0
  (1) pair eam/alloy, perpetual
      attributes: half, newton on
      pair build: half/bin/atomonly/newton
      stencil: half/bin/3d
      bin: standard
Per MPI rank memory allocation (min/avg/max) = 5.411 | 5.411 | 5.411 Mbytes
   Step          Temp          E_pair         E_mol          TotEng         Press          Volume    
         0   0             -8963.0005      0             -8963.0005     -5973.3391      51324.051    
        30   0             -8964.0763      0             -8964.0763     -3443.7334      51324.051    
Loop time of 0.301633 on 1 procs for 30 steps with 3200 atoms

100.0% CPU use with 1 MPI tasks x no OpenMP threads

Minimization stats:
  Stopping criterion = linesearch alpha is zero
  Energy initial, next-to-last, final = 
     -8963.00049826424  -8964.07633391507  -8964.07633391507
  Force two-norm initial, final = 3.47643 4.9599618e-07
  Force max component initial, final = 0.12627393 1.6676942e-08
  Final line search alpha, max atom move = 0.5 8.3384712e-09
  Iterations, force evaluations = 30 60

MPI task timing breakdown:
Section |  min time  |  avg time  |  max time  |%varavg| %total
---------------------------------------------------------------
Pair    | 0.29699    | 0.29699    | 0.29699    |   0.0 | 98.46
Neigh   | 0          | 0          | 0          |   0.0 |  0.00
Comm    | 0.00096692 | 0.00096692 | 0.00096692 |   0.0 |  0.32
Output  | 0          | 0          | 0          |   0.0 |  0.00
Modify  | 0.00056731 | 0.00056731 | 0.00056731 |   0.0 |  0.19
Other   |            | 0.003109   |            |       |  1.03

Nlocal:           3200 ave        3200 max        3200 min
Histogram: 1 0 0 0 0 0 0 0 0 0
Nghost:           3344 ave        3344 max        3344 min
Histogram: 1 0 0 0 0 0 0 0 0 0
Neighs:         197600 ave      197600 max      197600 min
Histogram: 1 0 0 0 0 0 0 0 0 0

Total # of neighbors = 197600
Ave neighs/atom = 61.75
Neighbor list builds = 0
Dangerous builds = 0

compute 	peratom all pe/atom
compute 	eatoms all reduce sum c_peratom
compute 	csym all centro/atom fcc
thermo 		10
thermo_style 	custom step temp pe c_eatoms pxx pyy pzz lx ly lz fnorm
#dump 		1 all custom 1 dump.relax.1.* id type xs ys zs c_peratom c_csym
run 0
WARNING: No fixes with time integration, atoms won't move (../verlet.cpp:60)
Neighbor list info ...
  update: every = 1 steps, delay = 0 steps, check = yes
  max neighbors/atom: 2000, page size: 100000
  master list distance cutoff = 7.995011
  ghost atom cutoff = 7.995011
  binsize = 3.9975055, bins = 13 8 9
  2 neighbor lists, perpetual/occasional/extra = 1 1 0
  (1) pair eam/alloy, perpetual
      attributes: half, newton on
      pair build: half/bin/atomonly/newton
      stencil: half/bin/3d
      bin: standard
  (2) compute centro/atom, occasional
      attributes: full, newton on
      pair build: full/bin/atomonly
      stencil: full/bin/3d
      bin: standard
Per MPI rank memory allocation (min/avg/max) = 5.042 | 5.042 | 5.042 Mbytes
   Step          Temp          PotEng        c_eatoms         Pxx            Pyy            Pzz             Lx             Ly             Lz           Fnorm     
        30   0             -8964.0763     -8964.0763     -5177.9056     -5177.9056     -0.0070721536   50.092067      28.920668      35.343537      4.9599618e-07
Loop time of 1.046e-06 on 1 procs for 0 steps with 3200 atoms

191.2% CPU use with 1 MPI tasks x no OpenMP threads

MPI task timing breakdown:
Section |  min time  |  avg time  |  max time  |%varavg| %total
---------------------------------------------------------------
Pair    | 0          | 0          | 0          |   0.0 |  0.00
Neigh   | 0          | 0          | 0          |   0.0 |  0.00
Comm    | 0          | 0          | 0          |   0.0 |  0.00
Output  | 0          | 0          | 0          |   0.0 |  0.00
Modify  | 0          | 0          | 0          |   0.0 |  0.00
Other   |            | 1.046e-06  |            |       |100.00

Nlocal:           3200 ave        3200 max        3200 min
Histogram: 1 0 0 0 0 0 0 0 0 0
Nghost:           3344 ave        3344 max        3344 min
Histogram: 1 0 0 0 0 0 0 0 0 0
Neighs:         197600 ave      197600 max      197600 min
Histogram: 1 0 0 0 0 0 0 0 0 0
FullNghs:            0 ave           0 max           0 min
Histogram: 1 0 0 0 0 0 0 0 0 0

Total # of neighbors = 197600
Ave neighs/atom = 61.75
Neighbor list builds = 0
Dangerous builds = 0
#this command creates a model of the script before the displacement and minimization occur
variable 	E equal "c_eatoms"
variable 	Eo equal $E
variable 	Eo equal -8964.07633391985
#variable 	E equal "c_eatoms" computes the initial energy of the model before any sliding is done
#E is necessary to store the initial energy in Eo

group 		bot region 1
1400 atoms in group bot
group 		top region 2
1800 atoms in group top
group 		top2 region 3
1400 atoms in group top2

displace_atoms 	top move ${x_displace} 0.0 0.0 units box
displace_atoms 	top move -1.66973556737869 0.0 0.0 units box
Displacing atoms ...

#displace_atoms is the command neccessary to move atoms into the next stacking arrangement (ie: A -> B)

fix 		1 all setforce 0 0 NULL
min_style 	cg
minimize 	0.0 1e-8 20000 20000
Per MPI rank memory allocation (min/avg/max) = 6.292 | 6.292 | 6.292 Mbytes
   Step          Temp          PotEng        c_eatoms         Pxx            Pyy            Pzz             Lx             Ly             Lz           Fnorm     
        30   0             -8962.3211     -8962.3211     -5591.7202     -5591.7202     -1576.99        50.092067      28.920668      35.343537      0.73964576   
        40   0             -8962.4682     -8962.4682     -4916.0068     -4916.0068     -147.92622      50.092067      28.920668      35.343537      0.079250389  
        50   0             -8962.4707     -8962.4707     -4849.2612     -4849.2612      2.0166763      50.092067      28.920668      35.343537      0.00021490913
        60   0             -8962.4707     -8962.4707     -4850.1594     -4850.1594      0.0068087804   50.092067      28.920668      35.343537      8.3903308e-06
        70   0             -8962.4707     -8962.4707     -4850.1627     -4850.1627     -0.0011681215   50.092067      28.920668      35.343537      1.9069354e-07
        76   0             -8962.4707     -8962.4707     -4850.1622     -4850.1622      1.4367245e-06  50.092067      28.920668      35.343537      8.8399799e-09
Loop time of 0.478683 on 1 procs for 46 steps with 3200 atoms

100.0% CPU use with 1 MPI tasks x no OpenMP threads

Minimization stats:
  Stopping criterion = force tolerance
  Energy initial, next-to-last, final = 
     -8962.32106258411  -8962.47074017725   -8962.4707401783
  Force two-norm initial, final = 0.73964576 8.8399799e-09
  Force max component initial, final = 0.026316509 2.9932082e-10
  Final line search alpha, max atom move = 1 2.9932082e-10
  Iterations, force evaluations = 46 92

MPI task timing breakdown:
Section |  min time  |  avg time  |  max time  |%varavg| %total
---------------------------------------------------------------
Pair    | 0.47141    | 0.47141    | 0.47141    |   0.0 | 98.48
Neigh   | 0          | 0          | 0          |   0.0 |  0.00
Comm    | 0.0014635  | 0.0014635  | 0.0014635  |   0.0 |  0.31
Output  | 0.00023725 | 0.00023725 | 0.00023725 |   0.0 |  0.05
Modify  | 0.00085978 | 0.00085978 | 0.00085978 |   0.0 |  0.18
Other   |            | 0.004712   |            |       |  0.98

Nlocal:           3200 ave        3200 max        3200 min
Histogram: 1 0 0 0 0 0 0 0 0 0
Nghost:           3344 ave        3344 max        3344 min
Histogram: 1 0 0 0 0 0 0 0 0 0
Neighs:         197400 ave      197400 max      197400 min
Histogram: 1 0 0 0 0 0 0 0 0 0
FullNghs:            0 ave           0 max           0 min
Histogram: 1 0 0 0 0 0 0 0 0 0

Total # of neighbors = 197400
Ave neighs/atom = 61.6875
Neighbor list builds = 0
Dangerous builds = 0

displace_atoms 	all random ${atomjiggle} ${atomjiggle} ${atomjiggle} 87287 units box
displace_atoms 	all random 1e-05 ${atomjiggle} ${atomjiggle} 87287 units box
displace_atoms 	all random 1e-05 1e-05 ${atomjiggle} 87287 units box
displace_atoms 	all random 1e-05 1e-05 1e-05 87287 units box
Displacing atoms ...
minimize 	0.0 1e-8 20000 20000
Per MPI rank memory allocation (min/avg/max) = 6.292 | 6.292 | 6.292 Mbytes
   Step          Temp          PotEng        c_eatoms         Pxx            Pyy            Pzz             Lx             Ly             Lz           Fnorm     
        76   0             -8962.4707     -8962.4707     -4855.1497     -4855.1298     -0.00096622144  50.092067      28.920668      35.307298      0.0018569171 
        80   0             -8962.4707     -8962.4707     -4855.1555     -4855.1356     -0.011779125    50.092067      28.920668      35.307298      6.5723427e-05
        90   0             -8962.4707     -8962.4707     -4855.1531     -4855.1332     -0.0063900344   50.092067      28.920668      35.307298      5.3695965e-06
       100   0             -8962.4707     -8962.4707     -4855.1507     -4855.1309     -0.0011512521   50.092067      28.920668      35.307298      5.7223554e-07
       110   0             -8962.4707     -8962.4707     -4855.1503     -4855.1304     -0.00012465594  50.092067      28.920668      35.307298      9.0409633e-08
       119   0             -8962.4707     -8962.4707     -4855.1502     -4855.1304     -6.5769993e-06  50.092067      28.920668      35.307298      8.8373301e-09
Loop time of 0.457927 on 1 procs for 43 steps with 3200 atoms

100.0% CPU use with 1 MPI tasks x no OpenMP threads

Minimization stats:
  Stopping criterion = force tolerance
  Energy initial, next-to-last, final = 
     -8962.47073941504  -8962.47073971322  -8962.47073971329
  Force two-norm initial, final = 0.0018569171 8.8373301e-09
  Force max component initial, final = 9.7625584e-05 5.3059648e-10
  Final line search alpha, max atom move = 1 5.3059648e-10
  Iterations, force evaluations = 43 86

MPI task timing breakdown:
Section |  min time  |  avg time  |  max time  |%varavg| %total
---------------------------------------------------------------
Pair    | 0.45112    | 0.45112    | 0.45112    |   0.0 | 98.51
Neigh   | 0          | 0          | 0          |   0.0 |  0.00
Comm    | 0.0013688  | 0.0013688  | 0.0013688  |   0.0 |  0.30
Output  | 0.00023274 | 0.00023274 | 0.00023274 |   0.0 |  0.05
Modify  | 0.00080052 | 0.00080052 | 0.00080052 |   0.0 |  0.17
Other   |            | 0.004409   |            |       |  0.96

Nlocal:           3200 ave        3200 max        3200 min
Histogram: 1 0 0 0 0 0 0 0 0 0
Nghost:           3344 ave        3344 max        3344 min
Histogram: 1 0 0 0 0 0 0 0 0 0
Neighs:         197400 ave      197400 max      197400 min
Histogram: 1 0 0 0 0 0 0 0 0 0
FullNghs:            0 ave           0 max           0 min
Histogram: 1 0 0 0 0 0 0 0 0 0

Total # of neighbors = 197400
Ave neighs/atom = 61.6875
Neighbor list builds = 0
Dangerous builds = 0

variable 	Ef equal "c_eatoms"
variable 	Efo equal $Ef
variable 	Efo equal -8962.47073971326f
variable	Cf equal 1.60217657e-16
variable 	A equal (${xdim}*${ydim})*1e-20
variable 	A equal (50.0920670213607*${ydim})*1e-20
variable 	A equal (50.0920670213607*28.9206683790474)*1e-20
variable 	SFE equal ((${Ef}-${Eo})*${Cf})/${A}
variable 	SFE equal ((-8962.47073971326-${Eo})*${Cf})/${A}
variable 	SFE equal ((-8962.47073971326--8964.07633391985)*${Cf})/${A}
variable 	SFE equal ((-8962.47073971326--8964.07633391985)*1.60217657e-16)/${A}
variable 	SFE equal ((-8962.47073971326--8964.07633391985)*1.60217657e-16)/1.44869605874579e-17
variable 	Efomj equal ${Ef}*${Cf}/${A}
variable 	Efomj equal -8962.47073971326*${Cf}/${A}
variable 	Efomj equal -8962.47073971326*1.60217657e-16/${A}
variable 	Efomj equal -8962.47073971326*1.60217657e-16/1.44869605874579e-17

####################################
print "Initial energy of atoms = ${Eo} eV"
Initial energy of atoms = -8964.07633391985 eV
print "Initial energy before twinning Efo = ${Ef} $Efomj" # in SFE in mJ/m^2"
Initial energy before twinning Efo = -8962.47073971326 -8962.47073971326fomj

#----------- for twin fault energy -----------------------
variable	Ndiscrt equal 30
variable    	i loop ${Ndiscrt}
variable    	i loop 30
label       	loop

variable 	xt_displace equal -1*(${latparam1}/sqrt(6)*${i}/${Ndiscrt})
variable 	xt_displace equal -1*(4.09000014545435/sqrt(6)*${i}/${Ndiscrt})
variable 	xt_displace equal -1*(4.09000014545435/sqrt(6)*1/${Ndiscrt})
variable 	xt_displace equal -1*(4.09000014545435/sqrt(6)*1/30)
variable 	Bxt_displace equal 1.0+${i}/${Ndiscrt}
variable 	Bxt_displace equal 1.0+1/${Ndiscrt}
variable 	Bxt_displace equal 1.0+1/30

displace_atoms 	top2 move ${xt_displace} 0.0 0.0 units box
displace_atoms 	top2 move -0.0556578522459563 0.0 0.0 units box
Displacing atoms ...

fix 		1 all setforce 0 0 NULL
min_style 	cg
minimize 	0.0 1e-8 20000 20000
Per MPI rank memory allocation (min/avg/max) = 6.292 | 6.292 | 6.292 Mbytes
   Step          Temp          PotEng        c_eatoms         Pxx            Pyy            Pzz             Lx             Ly             Lz           Fnorm     
       119   0             -8962.3246     -8962.3246     -5092.8599     -4622.0042      35.123256      50.092067      28.920668      35.307297      0.052827826  
       120   0             -8962.3247     -8962.3247     -5092.1858     -4622.4989      34.694584      50.092067      28.920668      35.307297      0.015764035  
       130   0             -8962.3248     -8962.3248     -5105.9705     -4636.6838      3.1641715      50.092067      28.920668      35.307297      0.0015831074 
       140   0             -8962.3248     -8962.3248     -5107.4207     -4638.1464     -0.0032899167   50.092067      28.920668      35.307297      3.5843659e-07
       143   0             -8962.3248     -8962.3248     -5107.4205     -4638.1462     -0.0027469241   50.092067      28.920668      35.307297      2.9148466e-07
Loop time of 0.260978 on 1 procs for 24 steps with 3200 atoms

100.0% CPU use with 1 MPI tasks x no OpenMP threads

Minimization stats:
  Stopping criterion = linesearch alpha is zero
  Energy initial, next-to-last, final = 
     -8962.32456681144  -8962.32479569987  -8962.32479569987
  Force two-norm initial, final = 0.052827826 2.9148466e-07
  Force max component initial, final = 0.0026432493 1.3475127e-08
  Final line search alpha, max atom move = 0.5 6.7375635e-09
  Iterations, force evaluations = 24 48

MPI task timing breakdown:
Section |  min time  |  avg time  |  max time  |%varavg| %total
---------------------------------------------------------------
Pair    | 0.25708    | 0.25708    | 0.25708    |   0.0 | 98.51
Neigh   | 0          | 0          | 0          |   0.0 |  0.00
Comm    | 0.00076607 | 0.00076607 | 0.00076607 |   0.0 |  0.29
Output  | 0.00017493 | 0.00017493 | 0.00017493 |   0.0 |  0.07
Modify  | 0.0004537  | 0.0004537  | 0.0004537  |   0.0 |  0.17
Other   |            | 0.002503   |            |       |  0.96

Nlocal:           3200 ave        3200 max        3200 min
Histogram: 1 0 0 0 0 0 0 0 0 0
Nghost:           3344 ave        3344 max        3344 min
Histogram: 1 0 0 0 0 0 0 0 0 0
Neighs:         197400 ave      197400 max      197400 min
Histogram: 1 0 0 0 0 0 0 0 0 0
FullNghs:            0 ave           0 max           0 min
Histogram: 1 0 0 0 0 0 0 0 0 0

Total # of neighbors = 197400
Ave neighs/atom = 61.6875
Neighbor list builds = 0
Dangerous builds = 0

variable 	Eftwn equal "c_eatoms"
variable 	Eftwnmj equal ${Eftwn}*${Cf}/${A}
variable 	Eftwnmj equal -8962.3247956998*${Cf}/${A}
variable 	Eftwnmj equal -8962.3247956998*1.60217657e-16/${A}
variable 	Eftwnmj equal -8962.3247956998*1.60217657e-16/1.44869605874579e-17
variable 	TFEf equal ${Eftwnmj}-${Efomj}
variable 	TFEf equal -99118.2844304262-${Efomj}
variable 	TFEf equal -99118.2844304262--99119.8984893413

print 		"displacement and TFE = ${Bxt_displace} ${TFEf}" # in SFE in mJ/m^2"
displacement and TFE = 1.03333333333333 1.61405891510367

next 		i
jump		TFE_displacement1.lmpin
#####################################################################################################################
# Course: Theory, Modelling, and Simulation of Microstructures (TMS)
# Tutors: Dr. Arun Prakash
# Description: Input file for Twin Fault Energy (TFE) of your element
# Originally created by Richard Glaze, 2014. Modified by S. Roy, 2018
######################################################################################################################

# --------------------- INITIALIZAITION ---------------------


clear
units		metal
dimension	3
boundary	p p s
atom_style	atomic
variable 	latparam1 equal 4.09000014545435    ### provide the lattice constant from your calculation
variable 	x_displace equal -1*(${latparam1}/sqrt(6))
variable 	x_displace equal -1*(4.09000014545435/sqrt(6))
variable 	xdim equal ${latparam1}*sqrt(6)/2*10
variable 	xdim equal 4.09000014545435*sqrt(6)/2*10
variable 	ydim equal ${latparam1}*sqrt(2)/2*10
variable 	ydim equal 4.09000014545435*sqrt(2)/2*10
variable 	atomjiggle equal 1.0e-5
variable 	Bx_displace equal 1.0

# --------------------- ATOM DEFINITION ---------------------
lattice		fcc ${latparam1}
lattice		fcc 4.09000014545435
Lattice spacing in x,y,z = 4.0900001 4.0900001 4.0900001
region		1 block -.001 ${xdim} -.001 ${ydim} -.001 16.5 units box
region		1 block -.001 50.0920670213607 -.001 ${ydim} -.001 16.5 units box
region		1 block -.001 50.0920670213607 -.001 28.9206683790474 -.001 16.5 units box
region 		2 block -.001 ${xdim} -.001 ${ydim} 16.5 36.5808 units box
region 		2 block -.001 50.0920670213607 -.001 ${ydim} 16.5 36.5808 units box
region 		2 block -.001 50.0920670213607 -.001 28.9206683790474 16.5 36.5808 units box
region 		3 block -.001 ${xdim} -.001 ${ydim} 19.5 36.5808 units box
region 		3 block -.001 50.0920670213607 -.001 ${ydim} 19.5 36.5808 units box
region 		3 block -.001 50.0920670213607 -.001 28.9206683790474 19.5 36.5808 units box
region		whole block 0 ${xdim} 0 ${ydim} 0 36.5808 units box
region		whole block 0 50.0920670213607 0 ${ydim} 0 36.5808 units box
region		whole block 0 50.0920670213607 0 28.9206683790474 0 36.5808 units box
#the -.001 in the -x and -y and lower limit of region 1 are only to overcome a simple numerical issue but can be considered 0
create_box 	1 whole
Created orthogonal box = (0 0 0) to (50.092067 28.920668 36.5808)
  1 by 1 by 1 MPI processor grid
lattice 	fcc ${latparam1} orient x 1 1 2 orient y -1 1 0 orient z -1 -1 1
lattice 	fcc 4.09000014545435 orient x 1 1 2 orient y -1 1 0 orient z -1 -1 1
Lattice spacing in x,y,z = 6.6789423 5.7841337 7.0840881
create_atoms	1 region 1
Created 1400 atoms
  using lattice units in orthogonal box = (0 0 -0.00365808) to (50.092067 28.920668 36.584458)
  create_atoms CPU = 0.001 seconds
lattice 	fcc ${latparam1} orient x 1 1 2 orient y -1 1 0 orient z -1 -1 1
lattice 	fcc 4.09000014545435 orient x 1 1 2 orient y -1 1 0 orient z -1 -1 1
Lattice spacing in x,y,z = 6.6789423 5.7841337 7.0840881
create_atoms 	1 region 2
Created 1800 atoms
  using lattice units in orthogonal box = (0 0 -0.00365808) to (50.092067 28.920668 36.584458)
  create_atoms CPU = 0.001 seconds

# --------------------- FORCE FIELDS ---------------------
#Provide potential
pair_style      eam/alloy ### --> TYPE OF POTENTIAL (eam (OR) eam/alloy)
pair_coeff      *  *  CuAg.eam.alloy Ag  ### POTENTIAL FILENAME


# --------------------- SETTINGS ---------------------

fix 		1 all setforce 0 0 NULL
min_style 	cg
minimize 	0.0 1e-8 20000 20000
Neighbor list info ...
  update: every = 1 steps, delay = 0 steps, check = yes
  max neighbors/atom: 2000, page size: 100000
  master list distance cutoff = 7.995011
  ghost atom cutoff = 7.995011
  binsize = 3.9975055, bins = 13 8 10
  1 neighbor lists, perpetual/occasional/extra = 1 0 0
  (1) pair eam/alloy, perpetual
      attributes: half, newton on
      pair build: half/bin/atomonly/newton
      stencil: half/bin/3d
      bin: standard
Per MPI rank memory allocation (min/avg/max) = 5.411 | 5.411 | 5.411 Mbytes
   Step          Temp          E_pair         E_mol          TotEng         Press          Volume    
         0   0             -8963.0005      0             -8963.0005     -5973.3391      51324.051    
        30   0             -8964.0763      0             -8964.0763     -3443.7334      51324.051    
Loop time of 0.298372 on 1 procs for 30 steps with 3200 atoms

100.0% CPU use with 1 MPI tasks x no OpenMP threads

Minimization stats:
  Stopping criterion = linesearch alpha is zero
  Energy initial, next-to-last, final = 
     -8963.00049826424  -8964.07633391507  -8964.07633391507
  Force two-norm initial, final = 3.47643 4.9599618e-07
  Force max component initial, final = 0.12627393 1.6676942e-08
  Final line search alpha, max atom move = 0.5 8.3384712e-09
  Iterations, force evaluations = 30 60

MPI task timing breakdown:
Section |  min time  |  avg time  |  max time  |%varavg| %total
---------------------------------------------------------------
Pair    | 0.29381    | 0.29381    | 0.29381    |   0.0 | 98.47
Neigh   | 0          | 0          | 0          |   0.0 |  0.00
Comm    | 0.00096869 | 0.00096869 | 0.00096869 |   0.0 |  0.32
Output  | 0          | 0          | 0          |   0.0 |  0.00
Modify  | 0.00056332 | 0.00056332 | 0.00056332 |   0.0 |  0.19
Other   |            | 0.003026   |            |       |  1.01

Nlocal:           3200 ave        3200 max        3200 min
Histogram: 1 0 0 0 0 0 0 0 0 0
Nghost:           3344 ave        3344 max        3344 min
Histogram: 1 0 0 0 0 0 0 0 0 0
Neighs:         197600 ave      197600 max      197600 min
Histogram: 1 0 0 0 0 0 0 0 0 0

Total # of neighbors = 197600
Ave neighs/atom = 61.75
Neighbor list builds = 0
Dangerous builds = 0

compute 	peratom all pe/atom
compute 	eatoms all reduce sum c_peratom
compute 	csym all centro/atom fcc
thermo 		10
thermo_style 	custom step temp pe c_eatoms pxx pyy pzz lx ly lz fnorm
#dump 		1 all custom 1 dump.relax.1.* id type xs ys zs c_peratom c_csym
run 0
WARNING: No fixes with time integration, atoms won't move (../verlet.cpp:60)
Neighbor list info ...
  update: every = 1 steps, delay = 0 steps, check = yes
  max neighbors/atom: 2000, page size: 100000
  master list distance cutoff = 7.995011
  ghost atom cutoff = 7.995011
  binsize = 3.9975055, bins = 13 8 9
  2 neighbor lists, perpetual/occasional/extra = 1 1 0
  (1) pair eam/alloy, perpetual
      attributes: half, newton on
      pair build: half/bin/atomonly/newton
      stencil: half/bin/3d
      bin: standard
  (2) compute centro/atom, occasional
      attributes: full, newton on
      pair build: full/bin/atomonly
      stencil: full/bin/3d
      bin: standard
Per MPI rank memory allocation (min/avg/max) = 5.042 | 5.042 | 5.042 Mbytes
   Step          Temp          PotEng        c_eatoms         Pxx            Pyy            Pzz             Lx             Ly             Lz           Fnorm     
        30   0             -8964.0763     -8964.0763     -5177.9056     -5177.9056     -0.0070721536   50.092067      28.920668      35.343537      4.9599618e-07
Loop time of 1.001e-06 on 1 procs for 0 steps with 3200 atoms

99.9% CPU use with 1 MPI tasks x no OpenMP threads

MPI task timing breakdown:
Section |  min time  |  avg time  |  max time  |%varavg| %total
---------------------------------------------------------------
Pair    | 0          | 0          | 0          |   0.0 |  0.00
Neigh   | 0          | 0          | 0          |   0.0 |  0.00
Comm    | 0          | 0          | 0          |   0.0 |  0.00
Output  | 0          | 0          | 0          |   0.0 |  0.00
Modify  | 0          | 0          | 0          |   0.0 |  0.00
Other   |            | 1.001e-06  |            |       |100.00

Nlocal:           3200 ave        3200 max        3200 min
Histogram: 1 0 0 0 0 0 0 0 0 0
Nghost:           3344 ave        3344 max        3344 min
Histogram: 1 0 0 0 0 0 0 0 0 0
Neighs:         197600 ave      197600 max      197600 min
Histogram: 1 0 0 0 0 0 0 0 0 0
FullNghs:            0 ave           0 max           0 min
Histogram: 1 0 0 0 0 0 0 0 0 0

Total # of neighbors = 197600
Ave neighs/atom = 61.75
Neighbor list builds = 0
Dangerous builds = 0
#this command creates a model of the script before the displacement and minimization occur
variable 	E equal "c_eatoms"
variable 	Eo equal $E
variable 	Eo equal -8964.07633391985
#variable 	E equal "c_eatoms" computes the initial energy of the model before any sliding is done
#E is necessary to store the initial energy in Eo

group 		bot region 1
1400 atoms in group bot
group 		top region 2
1800 atoms in group top
group 		top2 region 3
1400 atoms in group top2

displace_atoms 	top move ${x_displace} 0.0 0.0 units box
displace_atoms 	top move -1.66973556737869 0.0 0.0 units box
Displacing atoms ...

#displace_atoms is the command neccessary to move atoms into the next stacking arrangement (ie: A -> B)

fix 		1 all setforce 0 0 NULL
min_style 	cg
minimize 	0.0 1e-8 20000 20000
Per MPI rank memory allocation (min/avg/max) = 6.292 | 6.292 | 6.292 Mbytes
   Step          Temp          PotEng        c_eatoms         Pxx            Pyy            Pzz             Lx             Ly             Lz           Fnorm     
        30   0             -8962.3211     -8962.3211     -5591.7202     -5591.7202     -1576.99        50.092067      28.920668      35.343537      0.73964576   
        40   0             -8962.4682     -8962.4682     -4916.0068     -4916.0068     -147.92622      50.092067      28.920668      35.343537      0.079250389  
        50   0             -8962.4707     -8962.4707     -4849.2612     -4849.2612      2.0166763      50.092067      28.920668      35.343537      0.00021490913
        60   0             -8962.4707     -8962.4707     -4850.1594     -4850.1594      0.0068087804   50.092067      28.920668      35.343537      8.3903308e-06
        70   0             -8962.4707     -8962.4707     -4850.1627     -4850.1627     -0.0011681215   50.092067      28.920668      35.343537      1.9069354e-07
        76   0             -8962.4707     -8962.4707     -4850.1622     -4850.1622      1.4367245e-06  50.092067      28.920668      35.343537      8.8399799e-09
Loop time of 0.470048 on 1 procs for 46 steps with 3200 atoms

100.0% CPU use with 1 MPI tasks x no OpenMP threads

Minimization stats:
  Stopping criterion = force tolerance
  Energy initial, next-to-last, final = 
     -8962.32106258411  -8962.47074017725   -8962.4707401783
  Force two-norm initial, final = 0.73964576 8.8399799e-09
  Force max component initial, final = 0.026316509 2.9932082e-10
  Final line search alpha, max atom move = 1 2.9932082e-10
  Iterations, force evaluations = 46 92

MPI task timing breakdown:
Section |  min time  |  avg time  |  max time  |%varavg| %total
---------------------------------------------------------------
Pair    | 0.46282    | 0.46282    | 0.46282    |   0.0 | 98.46
Neigh   | 0          | 0          | 0          |   0.0 |  0.00
Comm    | 0.0014326  | 0.0014326  | 0.0014326  |   0.0 |  0.30
Output  | 0.00023189 | 0.00023189 | 0.00023189 |   0.0 |  0.05
Modify  | 0.00086273 | 0.00086273 | 0.00086273 |   0.0 |  0.18
Other   |            | 0.004702   |            |       |  1.00

Nlocal:           3200 ave        3200 max        3200 min
Histogram: 1 0 0 0 0 0 0 0 0 0
Nghost:           3344 ave        3344 max        3344 min
Histogram: 1 0 0 0 0 0 0 0 0 0
Neighs:         197400 ave      197400 max      197400 min
Histogram: 1 0 0 0 0 0 0 0 0 0
FullNghs:            0 ave           0 max           0 min
Histogram: 1 0 0 0 0 0 0 0 0 0

Total # of neighbors = 197400
Ave neighs/atom = 61.6875
Neighbor list builds = 0
Dangerous builds = 0

displace_atoms 	all random ${atomjiggle} ${atomjiggle} ${atomjiggle} 87287 units box
displace_atoms 	all random 1e-05 ${atomjiggle} ${atomjiggle} 87287 units box
displace_atoms 	all random 1e-05 1e-05 ${atomjiggle} 87287 units box
displace_atoms 	all random 1e-05 1e-05 1e-05 87287 units box
Displacing atoms ...
minimize 	0.0 1e-8 20000 20000
Per MPI rank memory allocation (min/avg/max) = 6.292 | 6.292 | 6.292 Mbytes
   Step          Temp          PotEng        c_eatoms         Pxx            Pyy            Pzz             Lx             Ly             Lz           Fnorm     
        76   0             -8962.4707     -8962.4707     -4855.1497     -4855.1298     -0.00096622144  50.092067      28.920668      35.307298      0.0018569171 
        80   0             -8962.4707     -8962.4707     -4855.1555     -4855.1356     -0.011779125    50.092067      28.920668      35.307298      6.5723427e-05
        90   0             -8962.4707     -8962.4707     -4855.1531     -4855.1332     -0.0063900344   50.092067      28.920668      35.307298      5.3695965e-06
       100   0             -8962.4707     -8962.4707     -4855.1507     -4855.1309     -0.0011512521   50.092067      28.920668      35.307298      5.7223554e-07
       110   0             -8962.4707     -8962.4707     -4855.1503     -4855.1304     -0.00012465594  50.092067      28.920668      35.307298      9.0409633e-08
       119   0             -8962.4707     -8962.4707     -4855.1502     -4855.1304     -6.5769993e-06  50.092067      28.920668      35.307298      8.8373301e-09
Loop time of 0.455067 on 1 procs for 43 steps with 3200 atoms

100.0% CPU use with 1 MPI tasks x no OpenMP threads

Minimization stats:
  Stopping criterion = force tolerance
  Energy initial, next-to-last, final = 
     -8962.47073941504  -8962.47073971322  -8962.47073971329
  Force two-norm initial, final = 0.0018569171 8.8373301e-09
  Force max component initial, final = 9.7625584e-05 5.3059648e-10
  Final line search alpha, max atom move = 1 5.3059648e-10
  Iterations, force evaluations = 43 86

MPI task timing breakdown:
Section |  min time  |  avg time  |  max time  |%varavg| %total
---------------------------------------------------------------
Pair    | 0.44821    | 0.44821    | 0.44821    |   0.0 | 98.49
Neigh   | 0          | 0          | 0          |   0.0 |  0.00
Comm    | 0.0013752  | 0.0013752  | 0.0013752  |   0.0 |  0.30
Output  | 0.00023463 | 0.00023463 | 0.00023463 |   0.0 |  0.05
Modify  | 0.00080484 | 0.00080484 | 0.00080484 |   0.0 |  0.18
Other   |            | 0.004444   |            |       |  0.98

Nlocal:           3200 ave        3200 max        3200 min
Histogram: 1 0 0 0 0 0 0 0 0 0
Nghost:           3344 ave        3344 max        3344 min
Histogram: 1 0 0 0 0 0 0 0 0 0
Neighs:         197400 ave      197400 max      197400 min
Histogram: 1 0 0 0 0 0 0 0 0 0
FullNghs:            0 ave           0 max           0 min
Histogram: 1 0 0 0 0 0 0 0 0 0

Total # of neighbors = 197400
Ave neighs/atom = 61.6875
Neighbor list builds = 0
Dangerous builds = 0

variable 	Ef equal "c_eatoms"
variable 	Efo equal $Ef
variable 	Efo equal -8962.47073971326f
variable	Cf equal 1.60217657e-16
variable 	A equal (${xdim}*${ydim})*1e-20
variable 	A equal (50.0920670213607*${ydim})*1e-20
variable 	A equal (50.0920670213607*28.9206683790474)*1e-20
variable 	SFE equal ((${Ef}-${Eo})*${Cf})/${A}
variable 	SFE equal ((-8962.47073971326-${Eo})*${Cf})/${A}
variable 	SFE equal ((-8962.47073971326--8964.07633391985)*${Cf})/${A}
variable 	SFE equal ((-8962.47073971326--8964.07633391985)*1.60217657e-16)/${A}
variable 	SFE equal ((-8962.47073971326--8964.07633391985)*1.60217657e-16)/1.44869605874579e-17
variable 	Efomj equal ${Ef}*${Cf}/${A}
variable 	Efomj equal -8962.47073971326*${Cf}/${A}
variable 	Efomj equal -8962.47073971326*1.60217657e-16/${A}
variable 	Efomj equal -8962.47073971326*1.60217657e-16/1.44869605874579e-17

####################################
print "Initial energy of atoms = ${Eo} eV"
Initial energy of atoms = -8964.07633391985 eV
print "Initial energy before twinning Efo = ${Ef} $Efomj" # in SFE in mJ/m^2"
Initial energy before twinning Efo = -8962.47073971326 -8962.47073971326fomj

#----------- for twin fault energy -----------------------
variable	Ndiscrt equal 30
variable    	i loop ${Ndiscrt}
variable    	i loop 30
label       	loop

variable 	xt_displace equal -1*(${latparam1}/sqrt(6)*${i}/${Ndiscrt})
variable 	xt_displace equal -1*(4.09000014545435/sqrt(6)*${i}/${Ndiscrt})
variable 	xt_displace equal -1*(4.09000014545435/sqrt(6)*2/${Ndiscrt})
variable 	xt_displace equal -1*(4.09000014545435/sqrt(6)*2/30)
variable 	Bxt_displace equal 1.0+${i}/${Ndiscrt}
variable 	Bxt_displace equal 1.0+2/${Ndiscrt}
variable 	Bxt_displace equal 1.0+2/30

displace_atoms 	top2 move ${xt_displace} 0.0 0.0 units box
displace_atoms 	top2 move -0.111315704491913 0.0 0.0 units box
Displacing atoms ...

fix 		1 all setforce 0 0 NULL
min_style 	cg
minimize 	0.0 1e-8 20000 20000
Per MPI rank memory allocation (min/avg/max) = 6.292 | 6.292 | 6.292 Mbytes
   Step          Temp          PotEng        c_eatoms         Pxx            Pyy            Pzz             Lx             Ly             Lz           Fnorm     
       119   0             -8961.912      -8961.912      -5340.5536     -4387.4906      133.1174       50.092067      28.920668      35.307297      0.20050536   
       120   0             -8961.9144     -8961.9144     -5335.5474     -4391.4363      130.99122      50.092067      28.920668      35.307297      0.060298312  
       130   0             -8961.9153     -8961.9153     -5386.6443     -4445.4625      12.39561       50.092067      28.920668      35.307297      0.0067576406 
       140   0             -8961.9153     -8961.9153     -5392.2088     -4451.1316     -0.04027856     50.092067      28.920668      35.307297      7.9527707e-06
       150   0             -8961.9153     -8961.9153     -5392.191      -4451.1136     -8.6340708e-05  50.092067      28.920668      35.307297      1.9718982e-07
       160   0             -8961.9153     -8961.9153     -5392.191      -4451.1135     -1.5402724e-05  50.092067      28.920668      35.307297      6.7493158e-08
       168   0             -8961.9153     -8961.9153     -5392.1909     -4451.1135     -4.0682062e-06  50.092067      28.920668      35.307297      9.6938523e-09
Loop time of 0.518416 on 1 procs for 49 steps with 3200 atoms

100.0% CPU use with 1 MPI tasks x no OpenMP threads

Minimization stats:
  Stopping criterion = force tolerance
  Energy initial, next-to-last, final = 
     -8961.91202704704  -8961.91529939561  -8961.91529939568
  Force two-norm initial, final = 0.20050536 9.6938523e-09
  Force max component initial, final = 0.010029106 6.3681726e-10
  Final line search alpha, max atom move = 1 6.3681726e-10
  Iterations, force evaluations = 49 98

MPI task timing breakdown:
Section |  min time  |  avg time  |  max time  |%varavg| %total
---------------------------------------------------------------
Pair    | 0.5107     | 0.5107     | 0.5107     |   0.0 | 98.51
Neigh   | 0          | 0          | 0          |   0.0 |  0.00
Comm    | 0.0015188  | 0.0015188  | 0.0015188  |   0.0 |  0.29
Output  | 0.00029026 | 0.00029026 | 0.00029026 |   0.0 |  0.06
Modify  | 0.00091649 | 0.00091649 | 0.00091649 |   0.0 |  0.18
Other   |            | 0.00499    |            |       |  0.96

Nlocal:           3200 ave        3200 max        3200 min
Histogram: 1 0 0 0 0 0 0 0 0 0
Nghost:           3344 ave        3344 max        3344 min
Histogram: 1 0 0 0 0 0 0 0 0 0
Neighs:         197400 ave      197400 max      197400 min
Histogram: 1 0 0 0 0 0 0 0 0 0
FullNghs:            0 ave           0 max           0 min
Histogram: 1 0 0 0 0 0 0 0 0 0

Total # of neighbors = 197400
Ave neighs/atom = 61.6875
Neighbor list builds = 0
Dangerous builds = 0

variable 	Eftwn equal "c_eatoms"
variable 	Eftwnmj equal ${Eftwn}*${Cf}/${A}
variable 	Eftwnmj equal -8961.91529939573*${Cf}/${A}
variable 	Eftwnmj equal -8961.91529939573*1.60217657e-16/${A}
variable 	Eftwnmj equal -8961.91529939573*1.60217657e-16/1.44869605874579e-17
variable 	TFEf equal ${Eftwnmj}-${Efomj}
variable 	TFEf equal -99113.7556310281-${Efomj}
variable 	TFEf equal -99113.7556310281--99119.8984893413

print 		"displacement and TFE = ${Bxt_displace} ${TFEf}" # in SFE in mJ/m^2"
displacement and TFE = 1.06666666666667 6.14285831319285

next 		i
jump		TFE_displacement1.lmpin
#####################################################################################################################
# Course: Theory, Modelling, and Simulation of Microstructures (TMS)
# Tutors: Dr. Arun Prakash
# Description: Input file for Twin Fault Energy (TFE) of your element
# Originally created by Richard Glaze, 2014. Modified by S. Roy, 2018
######################################################################################################################

# --------------------- INITIALIZAITION ---------------------


clear
units		metal
dimension	3
boundary	p p s
atom_style	atomic
variable 	latparam1 equal 4.09000014545435    ### provide the lattice constant from your calculation
variable 	x_displace equal -1*(${latparam1}/sqrt(6))
variable 	x_displace equal -1*(4.09000014545435/sqrt(6))
variable 	xdim equal ${latparam1}*sqrt(6)/2*10
variable 	xdim equal 4.09000014545435*sqrt(6)/2*10
variable 	ydim equal ${latparam1}*sqrt(2)/2*10
variable 	ydim equal 4.09000014545435*sqrt(2)/2*10
variable 	atomjiggle equal 1.0e-5
variable 	Bx_displace equal 1.0

# --------------------- ATOM DEFINITION ---------------------
lattice		fcc ${latparam1}
lattice		fcc 4.09000014545435
Lattice spacing in x,y,z = 4.0900001 4.0900001 4.0900001
region		1 block -.001 ${xdim} -.001 ${ydim} -.001 16.5 units box
region		1 block -.001 50.0920670213607 -.001 ${ydim} -.001 16.5 units box
region		1 block -.001 50.0920670213607 -.001 28.9206683790474 -.001 16.5 units box
region 		2 block -.001 ${xdim} -.001 ${ydim} 16.5 36.5808 units box
region 		2 block -.001 50.0920670213607 -.001 ${ydim} 16.5 36.5808 units box
region 		2 block -.001 50.0920670213607 -.001 28.9206683790474 16.5 36.5808 units box
region 		3 block -.001 ${xdim} -.001 ${ydim} 19.5 36.5808 units box
region 		3 block -.001 50.0920670213607 -.001 ${ydim} 19.5 36.5808 units box
region 		3 block -.001 50.0920670213607 -.001 28.9206683790474 19.5 36.5808 units box
region		whole block 0 ${xdim} 0 ${ydim} 0 36.5808 units box
region		whole block 0 50.0920670213607 0 ${ydim} 0 36.5808 units box
region		whole block 0 50.0920670213607 0 28.9206683790474 0 36.5808 units box
#the -.001 in the -x and -y and lower limit of region 1 are only to overcome a simple numerical issue but can be considered 0
create_box 	1 whole
Created orthogonal box = (0 0 0) to (50.092067 28.920668 36.5808)
  1 by 1 by 1 MPI processor grid
lattice 	fcc ${latparam1} orient x 1 1 2 orient y -1 1 0 orient z -1 -1 1
lattice 	fcc 4.09000014545435 orient x 1 1 2 orient y -1 1 0 orient z -1 -1 1
Lattice spacing in x,y,z = 6.6789423 5.7841337 7.0840881
create_atoms	1 region 1
Created 1400 atoms
  using lattice units in orthogonal box = (0 0 -0.00365808) to (50.092067 28.920668 36.584458)
  create_atoms CPU = 0.001 seconds
lattice 	fcc ${latparam1} orient x 1 1 2 orient y -1 1 0 orient z -1 -1 1
lattice 	fcc 4.09000014545435 orient x 1 1 2 orient y -1 1 0 orient z -1 -1 1
Lattice spacing in x,y,z = 6.6789423 5.7841337 7.0840881
create_atoms 	1 region 2
Created 1800 atoms
  using lattice units in orthogonal box = (0 0 -0.00365808) to (50.092067 28.920668 36.584458)
  create_atoms CPU = 0.001 seconds

# --------------------- FORCE FIELDS ---------------------
#Provide potential
pair_style      eam/alloy ### --> TYPE OF POTENTIAL (eam (OR) eam/alloy)
pair_coeff      *  *  CuAg.eam.alloy Ag  ### POTENTIAL FILENAME


# --------------------- SETTINGS ---------------------

fix 		1 all setforce 0 0 NULL
min_style 	cg
minimize 	0.0 1e-8 20000 20000
Neighbor list info ...
  update: every = 1 steps, delay = 0 steps, check = yes
  max neighbors/atom: 2000, page size: 100000
  master list distance cutoff = 7.995011
  ghost atom cutoff = 7.995011
  binsize = 3.9975055, bins = 13 8 10
  1 neighbor lists, perpetual/occasional/extra = 1 0 0
  (1) pair eam/alloy, perpetual
      attributes: half, newton on
      pair build: half/bin/atomonly/newton
      stencil: half/bin/3d
      bin: standard
Per MPI rank memory allocation (min/avg/max) = 5.411 | 5.411 | 5.411 Mbytes
   Step          Temp          E_pair         E_mol          TotEng         Press          Volume    
         0   0             -8963.0005      0             -8963.0005     -5973.3391      51324.051    
        30   0             -8964.0763      0             -8964.0763     -3443.7334      51324.051    
Loop time of 0.299526 on 1 procs for 30 steps with 3200 atoms

100.0% CPU use with 1 MPI tasks x no OpenMP threads

Minimization stats:
  Stopping criterion = linesearch alpha is zero
  Energy initial, next-to-last, final = 
     -8963.00049826424  -8964.07633391507  -8964.07633391507
  Force two-norm initial, final = 3.47643 4.9599618e-07
  Force max component initial, final = 0.12627393 1.6676942e-08
  Final line search alpha, max atom move = 0.5 8.3384712e-09
  Iterations, force evaluations = 30 60

MPI task timing breakdown:
Section |  min time  |  avg time  |  max time  |%varavg| %total
---------------------------------------------------------------
Pair    | 0.29498    | 0.29498    | 0.29498    |   0.0 | 98.48
Neigh   | 0          | 0          | 0          |   0.0 |  0.00
Comm    | 0.00096962 | 0.00096962 | 0.00096962 |   0.0 |  0.32
Output  | 0          | 0          | 0          |   0.0 |  0.00
Modify  | 0.00057133 | 0.00057133 | 0.00057133 |   0.0 |  0.19
Other   |            | 0.003001   |            |       |  1.00

Nlocal:           3200 ave        3200 max        3200 min
Histogram: 1 0 0 0 0 0 0 0 0 0
Nghost:           3344 ave        3344 max        3344 min
Histogram: 1 0 0 0 0 0 0 0 0 0
Neighs:         197600 ave      197600 max      197600 min
Histogram: 1 0 0 0 0 0 0 0 0 0

Total # of neighbors = 197600
Ave neighs/atom = 61.75
Neighbor list builds = 0
Dangerous builds = 0

compute 	peratom all pe/atom
compute 	eatoms all reduce sum c_peratom
compute 	csym all centro/atom fcc
thermo 		10
thermo_style 	custom step temp pe c_eatoms pxx pyy pzz lx ly lz fnorm
#dump 		1 all custom 1 dump.relax.1.* id type xs ys zs c_peratom c_csym
run 0
WARNING: No fixes with time integration, atoms won't move (../verlet.cpp:60)
Neighbor list info ...
  update: every = 1 steps, delay = 0 steps, check = yes
  max neighbors/atom: 2000, page size: 100000
  master list distance cutoff = 7.995011
  ghost atom cutoff = 7.995011
  binsize = 3.9975055, bins = 13 8 9
  2 neighbor lists, perpetual/occasional/extra = 1 1 0
  (1) pair eam/alloy, perpetual
      attributes: half, newton on
      pair build: half/bin/atomonly/newton
      stencil: half/bin/3d
      bin: standard
  (2) compute centro/atom, occasional
      attributes: full, newton on
      pair build: full/bin/atomonly
      stencil: full/bin/3d
      bin: standard
Per MPI rank memory allocation (min/avg/max) = 5.042 | 5.042 | 5.042 Mbytes
   Step          Temp          PotEng        c_eatoms         Pxx            Pyy            Pzz             Lx             Ly             Lz           Fnorm     
        30   0             -8964.0763     -8964.0763     -5177.9056     -5177.9056     -0.0070721536   50.092067      28.920668      35.343537      4.9599618e-07
Loop time of 9.5e-07 on 1 procs for 0 steps with 3200 atoms

105.3% CPU use with 1 MPI tasks x no OpenMP threads

MPI task timing breakdown:
Section |  min time  |  avg time  |  max time  |%varavg| %total
---------------------------------------------------------------
Pair    | 0          | 0          | 0          |   0.0 |  0.00
Neigh   | 0          | 0          | 0          |   0.0 |  0.00
Comm    | 0          | 0          | 0          |   0.0 |  0.00
Output  | 0          | 0          | 0          |   0.0 |  0.00
Modify  | 0          | 0          | 0          |   0.0 |  0.00
Other   |            | 9.5e-07    |            |       |100.00

Nlocal:           3200 ave        3200 max        3200 min
Histogram: 1 0 0 0 0 0 0 0 0 0
Nghost:           3344 ave        3344 max        3344 min
Histogram: 1 0 0 0 0 0 0 0 0 0
Neighs:         197600 ave      197600 max      197600 min
Histogram: 1 0 0 0 0 0 0 0 0 0
FullNghs:            0 ave           0 max           0 min
Histogram: 1 0 0 0 0 0 0 0 0 0

Total # of neighbors = 197600
Ave neighs/atom = 61.75
Neighbor list builds = 0
Dangerous builds = 0
#this command creates a model of the script before the displacement and minimization occur
variable 	E equal "c_eatoms"
variable 	Eo equal $E
variable 	Eo equal -8964.07633391985
#variable 	E equal "c_eatoms" computes the initial energy of the model before any sliding is done
#E is necessary to store the initial energy in Eo

group 		bot region 1
1400 atoms in group bot
group 		top region 2
1800 atoms in group top
group 		top2 region 3
1400 atoms in group top2

displace_atoms 	top move ${x_displace} 0.0 0.0 units box
displace_atoms 	top move -1.66973556737869 0.0 0.0 units box
Displacing atoms ...

#displace_atoms is the command neccessary to move atoms into the next stacking arrangement (ie: A -> B)

fix 		1 all setforce 0 0 NULL
min_style 	cg
minimize 	0.0 1e-8 20000 20000
Per MPI rank memory allocation (min/avg/max) = 6.292 | 6.292 | 6.292 Mbytes
   Step          Temp          PotEng        c_eatoms         Pxx            Pyy            Pzz             Lx             Ly             Lz           Fnorm     
        30   0             -8962.3211     -8962.3211     -5591.7202     -5591.7202     -1576.99        50.092067      28.920668      35.343537      0.73964576   
        40   0             -8962.4682     -8962.4682     -4916.0068     -4916.0068     -147.92622      50.092067      28.920668      35.343537      0.079250389  
        50   0             -8962.4707     -8962.4707     -4849.2612     -4849.2612      2.0166763      50.092067      28.920668      35.343537      0.00021490913
        60   0             -8962.4707     -8962.4707     -4850.1594     -4850.1594      0.0068087804   50.092067      28.920668      35.343537      8.3903308e-06
        70   0             -8962.4707     -8962.4707     -4850.1627     -4850.1627     -0.0011681215   50.092067      28.920668      35.343537      1.9069354e-07
        76   0             -8962.4707     -8962.4707     -4850.1622     -4850.1622      1.4367245e-06  50.092067      28.920668      35.343537      8.8399799e-09
Loop time of 0.469522 on 1 procs for 46 steps with 3200 atoms

100.0% CPU use with 1 MPI tasks x no OpenMP threads

Minimization stats:
  Stopping criterion = force tolerance
  Energy initial, next-to-last, final = 
     -8962.32106258411  -8962.47074017725   -8962.4707401783
  Force two-norm initial, final = 0.73964576 8.8399799e-09
  Force max component initial, final = 0.026316509 2.9932082e-10
  Final line search alpha, max atom move = 1 2.9932082e-10
  Iterations, force evaluations = 46 92

MPI task timing breakdown:
Section |  min time  |  avg time  |  max time  |%varavg| %total
---------------------------------------------------------------
Pair    | 0.46216    | 0.46216    | 0.46216    |   0.0 | 98.43
Neigh   | 0          | 0          | 0          |   0.0 |  0.00
Comm    | 0.0014943  | 0.0014943  | 0.0014943  |   0.0 |  0.32
Output  | 0.00023502 | 0.00023502 | 0.00023502 |   0.0 |  0.05
Modify  | 0.00086423 | 0.00086423 | 0.00086423 |   0.0 |  0.18
Other   |            | 0.004773   |            |       |  1.02

Nlocal:           3200 ave        3200 max        3200 min
Histogram: 1 0 0 0 0 0 0 0 0 0
Nghost:           3344 ave        3344 max        3344 min
Histogram: 1 0 0 0 0 0 0 0 0 0
Neighs:         197400 ave      197400 max      197400 min
Histogram: 1 0 0 0 0 0 0 0 0 0
FullNghs:            0 ave           0 max           0 min
Histogram: 1 0 0 0 0 0 0 0 0 0

Total # of neighbors = 197400
Ave neighs/atom = 61.6875
Neighbor list builds = 0
Dangerous builds = 0

displace_atoms 	all random ${atomjiggle} ${atomjiggle} ${atomjiggle} 87287 units box
displace_atoms 	all random 1e-05 ${atomjiggle} ${atomjiggle} 87287 units box
displace_atoms 	all random 1e-05 1e-05 ${atomjiggle} 87287 units box
displace_atoms 	all random 1e-05 1e-05 1e-05 87287 units box
Displacing atoms ...
minimize 	0.0 1e-8 20000 20000
Per MPI rank memory allocation (min/avg/max) = 6.292 | 6.292 | 6.292 Mbytes
   Step          Temp          PotEng        c_eatoms         Pxx            Pyy            Pzz             Lx             Ly             Lz           Fnorm     
        76   0             -8962.4707     -8962.4707     -4855.1497     -4855.1298     -0.00096622144  50.092067      28.920668      35.307298      0.0018569171 
        80   0             -8962.4707     -8962.4707     -4855.1555     -4855.1356     -0.011779125    50.092067      28.920668      35.307298      6.5723427e-05
        90   0             -8962.4707     -8962.4707     -4855.1531     -4855.1332     -0.0063900344   50.092067      28.920668      35.307298      5.3695965e-06
       100   0             -8962.4707     -8962.4707     -4855.1507     -4855.1309     -0.0011512521   50.092067      28.920668      35.307298      5.7223554e-07
       110   0             -8962.4707     -8962.4707     -4855.1503     -4855.1304     -0.00012465594  50.092067      28.920668      35.307298      9.0409633e-08
       119   0             -8962.4707     -8962.4707     -4855.1502     -4855.1304     -6.5769993e-06  50.092067      28.920668      35.307298      8.8373301e-09
Loop time of 0.458007 on 1 procs for 43 steps with 3200 atoms

100.0% CPU use with 1 MPI tasks x no OpenMP threads

Minimization stats:
  Stopping criterion = force tolerance
  Energy initial, next-to-last, final = 
     -8962.47073941504  -8962.47073971322  -8962.47073971329
  Force two-norm initial, final = 0.0018569171 8.8373301e-09
  Force max component initial, final = 9.7625584e-05 5.3059648e-10
  Final line search alpha, max atom move = 1 5.3059648e-10
  Iterations, force evaluations = 43 86

MPI task timing breakdown:
Section |  min time  |  avg time  |  max time  |%varavg| %total
---------------------------------------------------------------
Pair    | 0.45107    | 0.45107    | 0.45107    |   0.0 | 98.48
Neigh   | 0          | 0          | 0          |   0.0 |  0.00
Comm    | 0.001402   | 0.001402   | 0.001402   |   0.0 |  0.31
Output  | 0.00023433 | 0.00023433 | 0.00023433 |   0.0 |  0.05
Modify  | 0.00081168 | 0.00081168 | 0.00081168 |   0.0 |  0.18
Other   |            | 0.004491   |            |       |  0.98

Nlocal:           3200 ave        3200 max        3200 min
Histogram: 1 0 0 0 0 0 0 0 0 0
Nghost:           3344 ave        3344 max        3344 min
Histogram: 1 0 0 0 0 0 0 0 0 0
Neighs:         197400 ave      197400 max      197400 min
Histogram: 1 0 0 0 0 0 0 0 0 0
FullNghs:            0 ave           0 max           0 min
Histogram: 1 0 0 0 0 0 0 0 0 0

Total # of neighbors = 197400
Ave neighs/atom = 61.6875
Neighbor list builds = 0
Dangerous builds = 0

variable 	Ef equal "c_eatoms"
variable 	Efo equal $Ef
variable 	Efo equal -8962.47073971326f
variable	Cf equal 1.60217657e-16
variable 	A equal (${xdim}*${ydim})*1e-20
variable 	A equal (50.0920670213607*${ydim})*1e-20
variable 	A equal (50.0920670213607*28.9206683790474)*1e-20
variable 	SFE equal ((${Ef}-${Eo})*${Cf})/${A}
variable 	SFE equal ((-8962.47073971326-${Eo})*${Cf})/${A}
variable 	SFE equal ((-8962.47073971326--8964.07633391985)*${Cf})/${A}
variable 	SFE equal ((-8962.47073971326--8964.07633391985)*1.60217657e-16)/${A}
variable 	SFE equal ((-8962.47073971326--8964.07633391985)*1.60217657e-16)/1.44869605874579e-17
variable 	Efomj equal ${Ef}*${Cf}/${A}
variable 	Efomj equal -8962.47073971326*${Cf}/${A}
variable 	Efomj equal -8962.47073971326*1.60217657e-16/${A}
variable 	Efomj equal -8962.47073971326*1.60217657e-16/1.44869605874579e-17

####################################
print "Initial energy of atoms = ${Eo} eV"
Initial energy of atoms = -8964.07633391985 eV
print "Initial energy before twinning Efo = ${Ef} $Efomj" # in SFE in mJ/m^2"
Initial energy before twinning Efo = -8962.47073971326 -8962.47073971326fomj

#----------- for twin fault energy -----------------------
variable	Ndiscrt equal 30
variable    	i loop ${Ndiscrt}
variable    	i loop 30
label       	loop

variable 	xt_displace equal -1*(${latparam1}/sqrt(6)*${i}/${Ndiscrt})
variable 	xt_displace equal -1*(4.09000014545435/sqrt(6)*${i}/${Ndiscrt})
variable 	xt_displace equal -1*(4.09000014545435/sqrt(6)*3/${Ndiscrt})
variable 	xt_displace equal -1*(4.09000014545435/sqrt(6)*3/30)
variable 	Bxt_displace equal 1.0+${i}/${Ndiscrt}
variable 	Bxt_displace equal 1.0+3/${Ndiscrt}
variable 	Bxt_displace equal 1.0+3/30

displace_atoms 	top2 move ${xt_displace} 0.0 0.0 units box
displace_atoms 	top2 move -0.166973556737869 0.0 0.0 units box
Displacing atoms ...

fix 		1 all setforce 0 0 NULL
min_style 	cg
minimize 	0.0 1e-8 20000 20000
Per MPI rank memory allocation (min/avg/max) = 6.292 | 6.292 | 6.292 Mbytes
   Step          Temp          PotEng        c_eatoms         Pxx            Pyy            Pzz             Lx             Ly             Lz           Fnorm     
       119   0             -8961.2736     -8961.2736     -5594.2531     -4154.5493      282.93107      50.092067      28.920668      35.307297      0.42649588   
       120   0             -8961.2844     -8961.2844     -5578.1134     -4167.1581      276.81511      50.092067      28.920668      35.307297      0.13019244   
       130   0             -8961.2881     -8961.2881     -5683.6517     -4281.5945      28.237555      50.092067      28.920668      35.307297      0.01522991   
       140   0             -8961.2882     -8961.2882     -5696.1368     -4294.3172     -0.12766813     50.092067      28.920668      35.307297      4.0929463e-05
       150   0             -8961.2882     -8961.2882     -5696.0817     -4294.261      -0.0026504749   50.092067      28.920668      35.307297      3.6584497e-06
       160   0             -8961.2882     -8961.2882     -5696.0804     -4294.2598      4.8052689e-05  50.092067      28.920668      35.307297      2.7186918e-07
       170   0             -8961.2882     -8961.2882     -5696.0804     -4294.2598     -1.2311773e-05  50.092067      28.920668      35.307297      2.1786692e-08
       172   0             -8961.2882     -8961.2882     -5696.0804     -4294.2598     -1.5006299e-05  50.092067      28.920668      35.307297      9.3438804e-09
Loop time of 0.564412 on 1 procs for 53 steps with 3200 atoms

100.0% CPU use with 1 MPI tasks x no OpenMP threads

Minimization stats:
  Stopping criterion = force tolerance
  Energy initial, next-to-last, final = 
     -8961.27357766295  -8961.28822641701  -8961.28822641701
  Force two-norm initial, final = 0.42649588 9.3438804e-09
  Force max component initial, final = 0.021331047 5.3294174e-10
  Final line search alpha, max atom move = 1 5.3294174e-10
  Iterations, force evaluations = 53 106

MPI task timing breakdown:
Section |  min time  |  avg time  |  max time  |%varavg| %total
---------------------------------------------------------------
Pair    | 0.55579    | 0.55579    | 0.55579    |   0.0 | 98.47
Neigh   | 0          | 0          | 0          |   0.0 |  0.00
Comm    | 0.0017193  | 0.0017193  | 0.0017193  |   0.0 |  0.30
Output  | 0.00035289 | 0.00035289 | 0.00035289 |   0.0 |  0.06
Modify  | 0.0009994  | 0.0009994  | 0.0009994  |   0.0 |  0.18
Other   |            | 0.005554   |            |       |  0.98

Nlocal:           3200 ave        3200 max        3200 min
Histogram: 1 0 0 0 0 0 0 0 0 0
Nghost:           3344 ave        3344 max        3344 min
Histogram: 1 0 0 0 0 0 0 0 0 0
Neighs:         197400 ave      197400 max      197400 min
Histogram: 1 0 0 0 0 0 0 0 0 0
FullNghs:            0 ave           0 max           0 min
Histogram: 1 0 0 0 0 0 0 0 0 0

Total # of neighbors = 197400
Ave neighs/atom = 61.6875
Neighbor list builds = 0
Dangerous builds = 0

variable 	Eftwn equal "c_eatoms"
variable 	Eftwnmj equal ${Eftwn}*${Cf}/${A}
variable 	Eftwnmj equal -8961.28822641706*${Cf}/${A}
variable 	Eftwnmj equal -8961.28822641706*1.60217657e-16/${A}
variable 	Eftwnmj equal -8961.28822641706*1.60217657e-16/1.44869605874579e-17
variable 	TFEf equal ${Eftwnmj}-${Efomj}
variable 	TFEf equal -99106.8205556681-${Efomj}
variable 	TFEf equal -99106.8205556681--99119.8984893413

print 		"displacement and TFE = ${Bxt_displace} ${TFEf}" # in SFE in mJ/m^2"
displacement and TFE = 1.1 13.0779336731939

next 		i
jump		TFE_displacement1.lmpin
#####################################################################################################################
# Course: Theory, Modelling, and Simulation of Microstructures (TMS)
# Tutors: Dr. Arun Prakash
# Description: Input file for Twin Fault Energy (TFE) of your element
# Originally created by Richard Glaze, 2014. Modified by S. Roy, 2018
######################################################################################################################

# --------------------- INITIALIZAITION ---------------------


clear
units		metal
dimension	3
boundary	p p s
atom_style	atomic
variable 	latparam1 equal 4.09000014545435    ### provide the lattice constant from your calculation
variable 	x_displace equal -1*(${latparam1}/sqrt(6))
variable 	x_displace equal -1*(4.09000014545435/sqrt(6))
variable 	xdim equal ${latparam1}*sqrt(6)/2*10
variable 	xdim equal 4.09000014545435*sqrt(6)/2*10
variable 	ydim equal ${latparam1}*sqrt(2)/2*10
variable 	ydim equal 4.09000014545435*sqrt(2)/2*10
variable 	atomjiggle equal 1.0e-5
variable 	Bx_displace equal 1.0

# --------------------- ATOM DEFINITION ---------------------
lattice		fcc ${latparam1}
lattice		fcc 4.09000014545435
Lattice spacing in x,y,z = 4.0900001 4.0900001 4.0900001
region		1 block -.001 ${xdim} -.001 ${ydim} -.001 16.5 units box
region		1 block -.001 50.0920670213607 -.001 ${ydim} -.001 16.5 units box
region		1 block -.001 50.0920670213607 -.001 28.9206683790474 -.001 16.5 units box
region 		2 block -.001 ${xdim} -.001 ${ydim} 16.5 36.5808 units box
region 		2 block -.001 50.0920670213607 -.001 ${ydim} 16.5 36.5808 units box
region 		2 block -.001 50.0920670213607 -.001 28.9206683790474 16.5 36.5808 units box
region 		3 block -.001 ${xdim} -.001 ${ydim} 19.5 36.5808 units box
region 		3 block -.001 50.0920670213607 -.001 ${ydim} 19.5 36.5808 units box
region 		3 block -.001 50.0920670213607 -.001 28.9206683790474 19.5 36.5808 units box
region		whole block 0 ${xdim} 0 ${ydim} 0 36.5808 units box
region		whole block 0 50.0920670213607 0 ${ydim} 0 36.5808 units box
region		whole block 0 50.0920670213607 0 28.9206683790474 0 36.5808 units box
#the -.001 in the -x and -y and lower limit of region 1 are only to overcome a simple numerical issue but can be considered 0
create_box 	1 whole
Created orthogonal box = (0 0 0) to (50.092067 28.920668 36.5808)
  1 by 1 by 1 MPI processor grid
lattice 	fcc ${latparam1} orient x 1 1 2 orient y -1 1 0 orient z -1 -1 1
lattice 	fcc 4.09000014545435 orient x 1 1 2 orient y -1 1 0 orient z -1 -1 1
Lattice spacing in x,y,z = 6.6789423 5.7841337 7.0840881
create_atoms	1 region 1
Created 1400 atoms
  using lattice units in orthogonal box = (0 0 -0.00365808) to (50.092067 28.920668 36.584458)
  create_atoms CPU = 0.001 seconds
lattice 	fcc ${latparam1} orient x 1 1 2 orient y -1 1 0 orient z -1 -1 1
lattice 	fcc 4.09000014545435 orient x 1 1 2 orient y -1 1 0 orient z -1 -1 1
Lattice spacing in x,y,z = 6.6789423 5.7841337 7.0840881
create_atoms 	1 region 2
Created 1800 atoms
  using lattice units in orthogonal box = (0 0 -0.00365808) to (50.092067 28.920668 36.584458)
  create_atoms CPU = 0.001 seconds

# --------------------- FORCE FIELDS ---------------------
#Provide potential
pair_style      eam/alloy ### --> TYPE OF POTENTIAL (eam (OR) eam/alloy)
pair_coeff      *  *  CuAg.eam.alloy Ag  ### POTENTIAL FILENAME


# --------------------- SETTINGS ---------------------

fix 		1 all setforce 0 0 NULL
min_style 	cg
minimize 	0.0 1e-8 20000 20000
Neighbor list info ...
  update: every = 1 steps, delay = 0 steps, check = yes
  max neighbors/atom: 2000, page size: 100000
  master list distance cutoff = 7.995011
  ghost atom cutoff = 7.995011
  binsize = 3.9975055, bins = 13 8 10
  1 neighbor lists, perpetual/occasional/extra = 1 0 0
  (1) pair eam/alloy, perpetual
      attributes: half, newton on
      pair build: half/bin/atomonly/newton
      stencil: half/bin/3d
      bin: standard
Per MPI rank memory allocation (min/avg/max) = 5.411 | 5.411 | 5.411 Mbytes
   Step          Temp          E_pair         E_mol          TotEng         Press          Volume    
         0   0             -8963.0005      0             -8963.0005     -5973.3391      51324.051    
        30   0             -8964.0763      0             -8964.0763     -3443.7334      51324.051    
Loop time of 0.300113 on 1 procs for 30 steps with 3200 atoms

100.0% CPU use with 1 MPI tasks x no OpenMP threads

Minimization stats:
  Stopping criterion = linesearch alpha is zero
  Energy initial, next-to-last, final = 
     -8963.00049826424  -8964.07633391507  -8964.07633391507
  Force two-norm initial, final = 3.47643 4.9599618e-07
  Force max component initial, final = 0.12627393 1.6676942e-08
  Final line search alpha, max atom move = 0.5 8.3384712e-09
  Iterations, force evaluations = 30 60

MPI task timing breakdown:
Section |  min time  |  avg time  |  max time  |%varavg| %total
---------------------------------------------------------------
Pair    | 0.29549    | 0.29549    | 0.29549    |   0.0 | 98.46
Neigh   | 0          | 0          | 0          |   0.0 |  0.00
Comm    | 0.00095556 | 0.00095556 | 0.00095556 |   0.0 |  0.32
Output  | 0          | 0          | 0          |   0.0 |  0.00
Modify  | 0.00057782 | 0.00057782 | 0.00057782 |   0.0 |  0.19
Other   |            | 0.003085   |            |       |  1.03

Nlocal:           3200 ave        3200 max        3200 min
Histogram: 1 0 0 0 0 0 0 0 0 0
Nghost:           3344 ave        3344 max        3344 min
Histogram: 1 0 0 0 0 0 0 0 0 0
Neighs:         197600 ave      197600 max      197600 min
Histogram: 1 0 0 0 0 0 0 0 0 0

Total # of neighbors = 197600
Ave neighs/atom = 61.75
Neighbor list builds = 0
Dangerous builds = 0

compute 	peratom all pe/atom
compute 	eatoms all reduce sum c_peratom
compute 	csym all centro/atom fcc
thermo 		10
thermo_style 	custom step temp pe c_eatoms pxx pyy pzz lx ly lz fnorm
#dump 		1 all custom 1 dump.relax.1.* id type xs ys zs c_peratom c_csym
run 0
WARNING: No fixes with time integration, atoms won't move (../verlet.cpp:60)
Neighbor list info ...
  update: every = 1 steps, delay = 0 steps, check = yes
  max neighbors/atom: 2000, page size: 100000
  master list distance cutoff = 7.995011
  ghost atom cutoff = 7.995011
  binsize = 3.9975055, bins = 13 8 9
  2 neighbor lists, perpetual/occasional/extra = 1 1 0
  (1) pair eam/alloy, perpetual
      attributes: half, newton on
      pair build: half/bin/atomonly/newton
      stencil: half/bin/3d
      bin: standard
  (2) compute centro/atom, occasional
      attributes: full, newton on
      pair build: full/bin/atomonly
      stencil: full/bin/3d
      bin: standard
Per MPI rank memory allocation (min/avg/max) = 5.042 | 5.042 | 5.042 Mbytes
   Step          Temp          PotEng        c_eatoms         Pxx            Pyy            Pzz             Lx             Ly             Lz           Fnorm     
        30   0             -8964.0763     -8964.0763     -5177.9056     -5177.9056     -0.0070721536   50.092067      28.920668      35.343537      4.9599618e-07
Loop time of 9.26e-07 on 1 procs for 0 steps with 3200 atoms

108.0% CPU use with 1 MPI tasks x no OpenMP threads

MPI task timing breakdown:
Section |  min time  |  avg time  |  max time  |%varavg| %total
---------------------------------------------------------------
Pair    | 0          | 0          | 0          |   0.0 |  0.00
Neigh   | 0          | 0          | 0          |   0.0 |  0.00
Comm    | 0          | 0          | 0          |   0.0 |  0.00
Output  | 0          | 0          | 0          |   0.0 |  0.00
Modify  | 0          | 0          | 0          |   0.0 |  0.00
Other   |            | 9.26e-07   |            |       |100.00

Nlocal:           3200 ave        3200 max        3200 min
Histogram: 1 0 0 0 0 0 0 0 0 0
Nghost:           3344 ave        3344 max        3344 min
Histogram: 1 0 0 0 0 0 0 0 0 0
Neighs:         197600 ave      197600 max      197600 min
Histogram: 1 0 0 0 0 0 0 0 0 0
FullNghs:            0 ave           0 max           0 min
Histogram: 1 0 0 0 0 0 0 0 0 0

Total # of neighbors = 197600
Ave neighs/atom = 61.75
Neighbor list builds = 0
Dangerous builds = 0
#this command creates a model of the script before the displacement and minimization occur
variable 	E equal "c_eatoms"
variable 	Eo equal $E
variable 	Eo equal -8964.07633391985
#variable 	E equal "c_eatoms" computes the initial energy of the model before any sliding is done
#E is necessary to store the initial energy in Eo

group 		bot region 1
1400 atoms in group bot
group 		top region 2
1800 atoms in group top
group 		top2 region 3
1400 atoms in group top2

displace_atoms 	top move ${x_displace} 0.0 0.0 units box
displace_atoms 	top move -1.66973556737869 0.0 0.0 units box
Displacing atoms ...

#displace_atoms is the command neccessary to move atoms into the next stacking arrangement (ie: A -> B)

fix 		1 all setforce 0 0 NULL
min_style 	cg
minimize 	0.0 1e-8 20000 20000
Per MPI rank memory allocation (min/avg/max) = 6.292 | 6.292 | 6.292 Mbytes
   Step          Temp          PotEng        c_eatoms         Pxx            Pyy            Pzz             Lx             Ly             Lz           Fnorm     
        30   0             -8962.3211     -8962.3211     -5591.7202     -5591.7202     -1576.99        50.092067      28.920668      35.343537      0.73964576   
        40   0             -8962.4682     -8962.4682     -4916.0068     -4916.0068     -147.92622      50.092067      28.920668      35.343537      0.079250389  
        50   0             -8962.4707     -8962.4707     -4849.2612     -4849.2612      2.0166763      50.092067      28.920668      35.343537      0.00021490913
        60   0             -8962.4707     -8962.4707     -4850.1594     -4850.1594      0.0068087804   50.092067      28.920668      35.343537      8.3903308e-06
        70   0             -8962.4707     -8962.4707     -4850.1627     -4850.1627     -0.0011681215   50.092067      28.920668      35.343537      1.9069354e-07
        76   0             -8962.4707     -8962.4707     -4850.1622     -4850.1622      1.4367245e-06  50.092067      28.920668      35.343537      8.8399799e-09
Loop time of 0.471428 on 1 procs for 46 steps with 3200 atoms

100.0% CPU use with 1 MPI tasks x no OpenMP threads

Minimization stats:
  Stopping criterion = force tolerance
  Energy initial, next-to-last, final = 
     -8962.32106258411  -8962.47074017725   -8962.4707401783
  Force two-norm initial, final = 0.73964576 8.8399799e-09
  Force max component initial, final = 0.026316509 2.9932082e-10
  Final line search alpha, max atom move = 1 2.9932082e-10
  Iterations, force evaluations = 46 92

MPI task timing breakdown:
Section |  min time  |  avg time  |  max time  |%varavg| %total
---------------------------------------------------------------
Pair    | 0.46416    | 0.46416    | 0.46416    |   0.0 | 98.46
Neigh   | 0          | 0          | 0          |   0.0 |  0.00
Comm    | 0.0014647  | 0.0014647  | 0.0014647  |   0.0 |  0.31
Output  | 0.00023165 | 0.00023165 | 0.00023165 |   0.0 |  0.05
Modify  | 0.00086106 | 0.00086106 | 0.00086106 |   0.0 |  0.18
Other   |            | 0.004712   |            |       |  1.00

Nlocal:           3200 ave        3200 max        3200 min
Histogram: 1 0 0 0 0 0 0 0 0 0
Nghost:           3344 ave        3344 max        3344 min
Histogram: 1 0 0 0 0 0 0 0 0 0
Neighs:         197400 ave      197400 max      197400 min
Histogram: 1 0 0 0 0 0 0 0 0 0
FullNghs:            0 ave           0 max           0 min
Histogram: 1 0 0 0 0 0 0 0 0 0

Total # of neighbors = 197400
Ave neighs/atom = 61.6875
Neighbor list builds = 0
Dangerous builds = 0

displace_atoms 	all random ${atomjiggle} ${atomjiggle} ${atomjiggle} 87287 units box
displace_atoms 	all random 1e-05 ${atomjiggle} ${atomjiggle} 87287 units box
displace_atoms 	all random 1e-05 1e-05 ${atomjiggle} 87287 units box
displace_atoms 	all random 1e-05 1e-05 1e-05 87287 units box
Displacing atoms ...
minimize 	0.0 1e-8 20000 20000
Per MPI rank memory allocation (min/avg/max) = 6.292 | 6.292 | 6.292 Mbytes
   Step          Temp          PotEng        c_eatoms         Pxx            Pyy            Pzz             Lx             Ly             Lz           Fnorm     
        76   0             -8962.4707     -8962.4707     -4855.1497     -4855.1298     -0.00096622144  50.092067      28.920668      35.307298      0.0018569171 
        80   0             -8962.4707     -8962.4707     -4855.1555     -4855.1356     -0.011779125    50.092067      28.920668      35.307298      6.5723427e-05
        90   0             -8962.4707     -8962.4707     -4855.1531     -4855.1332     -0.0063900344   50.092067      28.920668      35.307298      5.3695965e-06
       100   0             -8962.4707     -8962.4707     -4855.1507     -4855.1309     -0.0011512521   50.092067      28.920668      35.307298      5.7223554e-07
       110   0             -8962.4707     -8962.4707     -4855.1503     -4855.1304     -0.00012465594  50.092067      28.920668      35.307298      9.0409633e-08
       119   0             -8962.4707     -8962.4707     -4855.1502     -4855.1304     -6.5769993e-06  50.092067      28.920668      35.307298      8.8373301e-09
Loop time of 0.460644 on 1 procs for 43 steps with 3200 atoms

100.0% CPU use with 1 MPI tasks x no OpenMP threads

Minimization stats:
  Stopping criterion = force tolerance
  Energy initial, next-to-last, final = 
     -8962.47073941504  -8962.47073971322  -8962.47073971329
  Force two-norm initial, final = 0.0018569171 8.8373301e-09
  Force max component initial, final = 9.7625584e-05 5.3059648e-10
  Final line search alpha, max atom move = 1 5.3059648e-10
  Iterations, force evaluations = 43 86

MPI task timing breakdown:
Section |  min time  |  avg time  |  max time  |%varavg| %total
---------------------------------------------------------------
Pair    | 0.45376    | 0.45376    | 0.45376    |   0.0 | 98.51
Neigh   | 0          | 0          | 0          |   0.0 |  0.00
Comm    | 0.0013745  | 0.0013745  | 0.0013745  |   0.0 |  0.30
Output  | 0.000235   | 0.000235   | 0.000235   |   0.0 |  0.05
Modify  | 0.00080915 | 0.00080915 | 0.00080915 |   0.0 |  0.18
Other   |            | 0.004464   |            |       |  0.97

Nlocal:           3200 ave        3200 max        3200 min
Histogram: 1 0 0 0 0 0 0 0 0 0
Nghost:           3344 ave        3344 max        3344 min
Histogram: 1 0 0 0 0 0 0 0 0 0
Neighs:         197400 ave      197400 max      197400 min
Histogram: 1 0 0 0 0 0 0 0 0 0
FullNghs:            0 ave           0 max           0 min
Histogram: 1 0 0 0 0 0 0 0 0 0

Total # of neighbors = 197400
Ave neighs/atom = 61.6875
Neighbor list builds = 0
Dangerous builds = 0

variable 	Ef equal "c_eatoms"
variable 	Efo equal $Ef
variable 	Efo equal -8962.47073971326f
variable	Cf equal 1.60217657e-16
variable 	A equal (${xdim}*${ydim})*1e-20
variable 	A equal (50.0920670213607*${ydim})*1e-20
variable 	A equal (50.0920670213607*28.9206683790474)*1e-20
variable 	SFE equal ((${Ef}-${Eo})*${Cf})/${A}
variable 	SFE equal ((-8962.47073971326-${Eo})*${Cf})/${A}
variable 	SFE equal ((-8962.47073971326--8964.07633391985)*${Cf})/${A}
variable 	SFE equal ((-8962.47073971326--8964.07633391985)*1.60217657e-16)/${A}
variable 	SFE equal ((-8962.47073971326--8964.07633391985)*1.60217657e-16)/1.44869605874579e-17
variable 	Efomj equal ${Ef}*${Cf}/${A}
variable 	Efomj equal -8962.47073971326*${Cf}/${A}
variable 	Efomj equal -8962.47073971326*1.60217657e-16/${A}
variable 	Efomj equal -8962.47073971326*1.60217657e-16/1.44869605874579e-17

####################################
print "Initial energy of atoms = ${Eo} eV"
Initial energy of atoms = -8964.07633391985 eV
print "Initial energy before twinning Efo = ${Ef} $Efomj" # in SFE in mJ/m^2"
Initial energy before twinning Efo = -8962.47073971326 -8962.47073971326fomj

#----------- for twin fault energy -----------------------
variable	Ndiscrt equal 30
variable    	i loop ${Ndiscrt}
variable    	i loop 30
label       	loop

variable 	xt_displace equal -1*(${latparam1}/sqrt(6)*${i}/${Ndiscrt})
variable 	xt_displace equal -1*(4.09000014545435/sqrt(6)*${i}/${Ndiscrt})
variable 	xt_displace equal -1*(4.09000014545435/sqrt(6)*4/${Ndiscrt})
variable 	xt_displace equal -1*(4.09000014545435/sqrt(6)*4/30)
variable 	Bxt_displace equal 1.0+${i}/${Ndiscrt}
variable 	Bxt_displace equal 1.0+4/${Ndiscrt}
variable 	Bxt_displace equal 1.0+4/30

displace_atoms 	top2 move ${xt_displace} 0.0 0.0 units box
displace_atoms 	top2 move -0.222631408983825 0.0 0.0 units box
Displacing atoms ...

fix 		1 all setforce 0 0 NULL
min_style 	cg
minimize 	0.0 1e-8 20000 20000
Per MPI rank memory allocation (min/avg/max) = 6.292 | 6.292 | 6.292 Mbytes
   Step          Temp          PotEng        c_eatoms         Pxx            Pyy            Pzz             Lx             Ly             Lz           Fnorm     
       119   0             -8960.4511     -8960.4511     -5849.578      -3926.1821      473.6598       50.092067      28.920668      35.307297      0.7142733    
       120   0             -8960.481      -8960.481      -5813.0009     -3954.0592      459.96346      50.092067      28.920668      35.307297      0.22309299   
       130   0             -8960.4914     -8960.4914     -5983.441      -4142.6603      53.179737      50.092067      28.920668      35.307297      0.026994222  
       140   0             -8960.4917     -8960.4917     -6006.4959     -4166.3222      0.18104435     50.092067      28.920668      35.307297      0.00011941681
       150   0             -8960.4917     -8960.4917     -6006.5662     -4166.3984      0.017845739    50.092067      28.920668      35.307297      1.4925887e-05
       160   0             -8960.4917     -8960.4917     -6006.5734     -4166.4067      0.00013011255  50.092067      28.920668      35.307297      1.9817846e-07
       170   0             -8960.4917     -8960.4917     -6006.5735     -4166.4068     -0.0001540535   50.092067      28.920668      35.307297      4.2830386e-08
       177   0             -8960.4917     -8960.4917     -6006.5735     -4166.4068     -6.0717083e-05  50.092067      28.920668      35.307297      9.3823827e-09
Loop time of 0.617973 on 1 procs for 58 steps with 3200 atoms

100.0% CPU use with 1 MPI tasks x no OpenMP threads

Minimization stats:
  Stopping criterion = force tolerance
  Energy initial, next-to-last, final = 
     -8960.45112408448  -8960.49165910738  -8960.49165910745
  Force two-norm initial, final = 0.7142733 9.3823827e-09
  Force max component initial, final = 0.035722657 5.5157949e-10
  Final line search alpha, max atom move = 1 5.5157949e-10
  Iterations, force evaluations = 58 116

MPI task timing breakdown:
Section |  min time  |  avg time  |  max time  |%varavg| %total
---------------------------------------------------------------
Pair    | 0.60861    | 0.60861    | 0.60861    |   0.0 | 98.49
Neigh   | 0          | 0          | 0          |   0.0 |  0.00
Comm    | 0.0018416  | 0.0018416  | 0.0018416  |   0.0 |  0.30
Output  | 0.00034905 | 0.00034905 | 0.00034905 |   0.0 |  0.06
Modify  | 0.0010871  | 0.0010871  | 0.0010871  |   0.0 |  0.18
Other   |            | 0.006082   |            |       |  0.98

Nlocal:           3200 ave        3200 max        3200 min
Histogram: 1 0 0 0 0 0 0 0 0 0
Nghost:           3344 ave        3344 max        3344 min
Histogram: 1 0 0 0 0 0 0 0 0 0
Neighs:         197600 ave      197600 max      197600 min
Histogram: 1 0 0 0 0 0 0 0 0 0
FullNghs:            0 ave           0 max           0 min
Histogram: 1 0 0 0 0 0 0 0 0 0

Total # of neighbors = 197600
Ave neighs/atom = 61.75
Neighbor list builds = 0
Dangerous builds = 0

[...]
# Tutors: Dr. Arun Prakash
# Description: Input file for Twin Fault Energy (TFE) of your element
# Originally created by Richard Glaze, 2014. Modified by S. Roy, 2018
######################################################################################################################

# --------------------- INITIALIZAITION ---------------------


clear
units		metal
dimension	3
boundary	p p s
atom_style	atomic
variable 	latparam1 equal 4.09000014545435    ### provide the lattice constant from your calculation
variable 	x_displace equal -1*(${latparam1}/sqrt(6))
variable 	x_displace equal -1*(4.09000014545435/sqrt(6))
variable 	xdim equal ${latparam1}*sqrt(6)/2*10
variable 	xdim equal 4.09000014545435*sqrt(6)/2*10
variable 	ydim equal ${latparam1}*sqrt(2)/2*10
variable 	ydim equal 4.09000014545435*sqrt(2)/2*10
variable 	atomjiggle equal 1.0e-5
variable 	Bx_displace equal 1.0

# --------------------- ATOM DEFINITION ---------------------
lattice		fcc ${latparam1}
lattice		fcc 4.09000014545435
Lattice spacing in x,y,z = 4.0900001 4.0900001 4.0900001
region		1 block -.001 ${xdim} -.001 ${ydim} -.001 16.5 units box
region		1 block -.001 50.0920670213607 -.001 ${ydim} -.001 16.5 units box
region		1 block -.001 50.0920670213607 -.001 28.9206683790474 -.001 16.5 units box
region 		2 block -.001 ${xdim} -.001 ${ydim} 16.5 36.5808 units box
region 		2 block -.001 50.0920670213607 -.001 ${ydim} 16.5 36.5808 units box
region 		2 block -.001 50.0920670213607 -.001 28.9206683790474 16.5 36.5808 units box
region 		3 block -.001 ${xdim} -.001 ${ydim} 19.5 36.5808 units box
region 		3 block -.001 50.0920670213607 -.001 ${ydim} 19.5 36.5808 units box
region 		3 block -.001 50.0920670213607 -.001 28.9206683790474 19.5 36.5808 units box
region		whole block 0 ${xdim} 0 ${ydim} 0 36.5808 units box
region		whole block 0 50.0920670213607 0 ${ydim} 0 36.5808 units box
region		whole block 0 50.0920670213607 0 28.9206683790474 0 36.5808 units box
#the -.001 in the -x and -y and lower limit of region 1 are only to overcome a simple numerical issue but can be considered 0
create_box 	1 whole
Created orthogonal box = (0 0 0) to (50.092067 28.920668 36.5808)
  1 by 1 by 1 MPI processor grid
lattice 	fcc ${latparam1} orient x 1 1 2 orient y -1 1 0 orient z -1 -1 1
lattice 	fcc 4.09000014545435 orient x 1 1 2 orient y -1 1 0 orient z -1 -1 1
Lattice spacing in x,y,z = 6.6789423 5.7841337 7.0840881
create_atoms	1 region 1
Created 1400 atoms
  using lattice units in orthogonal box = (0 0 -0.00365808) to (50.092067 28.920668 36.584458)
  create_atoms CPU = 0.001 seconds
lattice 	fcc ${latparam1} orient x 1 1 2 orient y -1 1 0 orient z -1 -1 1
lattice 	fcc 4.09000014545435 orient x 1 1 2 orient y -1 1 0 orient z -1 -1 1
Lattice spacing in x,y,z = 6.6789423 5.7841337 7.0840881
create_atoms 	1 region 2
Created 1800 atoms
  using lattice units in orthogonal box = (0 0 -0.00365808) to (50.092067 28.920668 36.584458)
  create_atoms CPU = 0.001 seconds

# --------------------- FORCE FIELDS ---------------------
#Provide potential
pair_style      eam/alloy ### --> TYPE OF POTENTIAL (eam (OR) eam/alloy)
pair_coeff      *  *  CuAg.eam.alloy Ag  ### POTENTIAL FILENAME


# --------------------- SETTINGS ---------------------

fix 		1 all setforce 0 0 NULL
min_style 	cg
minimize 	0.0 1e-8 20000 20000
Neighbor list info ...
  update: every = 1 steps, delay = 0 steps, check = yes
  max neighbors/atom: 2000, page size: 100000
  master list distance cutoff = 7.995011
  ghost atom cutoff = 7.995011
  binsize = 3.9975055, bins = 13 8 10
  1 neighbor lists, perpetual/occasional/extra = 1 0 0
  (1) pair eam/alloy, perpetual
      attributes: half, newton on
      pair build: half/bin/atomonly/newton
      stencil: half/bin/3d
      bin: standard
Per MPI rank memory allocation (min/avg/max) = 5.411 | 5.411 | 5.411 Mbytes
   Step          Temp          E_pair         E_mol          TotEng         Press          Volume    
         0   0             -8963.0005      0             -8963.0005     -5973.3391      51324.051    
        30   0             -8964.0763      0             -8964.0763     -3443.7334      51324.051    
Loop time of 0.299691 on 1 procs for 30 steps with 3200 atoms

100.0% CPU use with 1 MPI tasks x no OpenMP threads

Minimization stats:
  Stopping criterion = linesearch alpha is zero
  Energy initial, next-to-last, final = 
     -8963.00049826424  -8964.07633391507  -8964.07633391507
  Force two-norm initial, final = 3.47643 4.9599618e-07
  Force max component initial, final = 0.12627393 1.6676942e-08
  Final line search alpha, max atom move = 0.5 8.3384712e-09
  Iterations, force evaluations = 30 60

MPI task timing breakdown:
Section |  min time  |  avg time  |  max time  |%varavg| %total
---------------------------------------------------------------
Pair    | 0.29515    | 0.29515    | 0.29515    |   0.0 | 98.48
Neigh   | 0          | 0          | 0          |   0.0 |  0.00
Comm    | 0.00093617 | 0.00093617 | 0.00093617 |   0.0 |  0.31
Output  | 0          | 0          | 0          |   0.0 |  0.00
Modify  | 0.00056662 | 0.00056662 | 0.00056662 |   0.0 |  0.19
Other   |            | 0.00304    |            |       |  1.01

Nlocal:           3200 ave        3200 max        3200 min
Histogram: 1 0 0 0 0 0 0 0 0 0
Nghost:           3344 ave        3344 max        3344 min
Histogram: 1 0 0 0 0 0 0 0 0 0
Neighs:         197600 ave      197600 max      197600 min
Histogram: 1 0 0 0 0 0 0 0 0 0

Total # of neighbors = 197600
Ave neighs/atom = 61.75
Neighbor list builds = 0
Dangerous builds = 0

compute 	peratom all pe/atom
compute 	eatoms all reduce sum c_peratom
compute 	csym all centro/atom fcc
thermo 		10
thermo_style 	custom step temp pe c_eatoms pxx pyy pzz lx ly lz fnorm
#dump 		1 all custom 1 dump.relax.1.* id type xs ys zs c_peratom c_csym
run 0
WARNING: No fixes with time integration, atoms won't move (../verlet.cpp:60)
Neighbor list info ...
  update: every = 1 steps, delay = 0 steps, check = yes
  max neighbors/atom: 2000, page size: 100000
  master list distance cutoff = 7.995011
  ghost atom cutoff = 7.995011
  binsize = 3.9975055, bins = 13 8 9
  2 neighbor lists, perpetual/occasional/extra = 1 1 0
  (1) pair eam/alloy, perpetual
      attributes: half, newton on
      pair build: half/bin/atomonly/newton
      stencil: half/bin/3d
      bin: standard
  (2) compute centro/atom, occasional
      attributes: full, newton on
      pair build: full/bin/atomonly
      stencil: full/bin/3d
      bin: standard
Per MPI rank memory allocation (min/avg/max) = 5.042 | 5.042 | 5.042 Mbytes
   Step          Temp          PotEng        c_eatoms         Pxx            Pyy            Pzz             Lx             Ly             Lz           Fnorm     
        30   0             -8964.0763     -8964.0763     -5177.9056     -5177.9056     -0.0070721536   50.092067      28.920668      35.343537      4.9599618e-07
Loop time of 9.25e-07 on 1 procs for 0 steps with 3200 atoms

108.1% CPU use with 1 MPI tasks x no OpenMP threads

MPI task timing breakdown:
Section |  min time  |  avg time  |  max time  |%varavg| %total
---------------------------------------------------------------
Pair    | 0          | 0          | 0          |   0.0 |  0.00
Neigh   | 0          | 0          | 0          |   0.0 |  0.00
Comm    | 0          | 0          | 0          |   0.0 |  0.00
Output  | 0          | 0          | 0          |   0.0 |  0.00
Modify  | 0          | 0          | 0          |   0.0 |  0.00
Other   |            | 9.25e-07   |            |       |100.00

Nlocal:           3200 ave        3200 max        3200 min
Histogram: 1 0 0 0 0 0 0 0 0 0
Nghost:           3344 ave        3344 max        3344 min
Histogram: 1 0 0 0 0 0 0 0 0 0
Neighs:         197600 ave      197600 max      197600 min
Histogram: 1 0 0 0 0 0 0 0 0 0
FullNghs:            0 ave           0 max           0 min
Histogram: 1 0 0 0 0 0 0 0 0 0

Total # of neighbors = 197600
Ave neighs/atom = 61.75
Neighbor list builds = 0
Dangerous builds = 0
#this command creates a model of the script before the displacement and minimization occur
variable 	E equal "c_eatoms"
variable 	Eo equal $E
variable 	Eo equal -8964.07633391985
#variable 	E equal "c_eatoms" computes the initial energy of the model before any sliding is done
#E is necessary to store the initial energy in Eo

group 		bot region 1
1400 atoms in group bot
group 		top region 2
1800 atoms in group top
group 		top2 region 3
1400 atoms in group top2

displace_atoms 	top move ${x_displace} 0.0 0.0 units box
displace_atoms 	top move -1.66973556737869 0.0 0.0 units box
Displacing atoms ...

#displace_atoms is the command neccessary to move atoms into the next stacking arrangement (ie: A -> B)

fix 		1 all setforce 0 0 NULL
min_style 	cg
minimize 	0.0 1e-8 20000 20000
Per MPI rank memory allocation (min/avg/max) = 6.292 | 6.292 | 6.292 Mbytes
   Step          Temp          PotEng        c_eatoms         Pxx            Pyy            Pzz             Lx             Ly             Lz           Fnorm     
        30   0             -8962.3211     -8962.3211     -5591.7202     -5591.7202     -1576.99        50.092067      28.920668      35.343537      0.73964576   
        40   0             -8962.4682     -8962.4682     -4916.0068     -4916.0068     -147.92622      50.092067      28.920668      35.343537      0.079250389  
        50   0             -8962.4707     -8962.4707     -4849.2612     -4849.2612      2.0166763      50.092067      28.920668      35.343537      0.00021490913
        60   0             -8962.4707     -8962.4707     -4850.1594     -4850.1594      0.0068087804   50.092067      28.920668      35.343537      8.3903308e-06
        70   0             -8962.4707     -8962.4707     -4850.1627     -4850.1627     -0.0011681215   50.092067      28.920668      35.343537      1.9069354e-07
        76   0             -8962.4707     -8962.4707     -4850.1622     -4850.1622      1.4367245e-06  50.092067      28.920668      35.343537      8.8399799e-09
Loop time of 0.473499 on 1 procs for 46 steps with 3200 atoms

100.0% CPU use with 1 MPI tasks x no OpenMP threads

Minimization stats:
  Stopping criterion = force tolerance
  Energy initial, next-to-last, final = 
     -8962.32106258411  -8962.47074017725   -8962.4707401783
  Force two-norm initial, final = 0.73964576 8.8399799e-09
  Force max component initial, final = 0.026316509 2.9932082e-10
  Final line search alpha, max atom move = 1 2.9932082e-10
  Iterations, force evaluations = 46 92

MPI task timing breakdown:
Section |  min time  |  avg time  |  max time  |%varavg| %total
---------------------------------------------------------------
Pair    | 0.46616    | 0.46616    | 0.46616    |   0.0 | 98.45
Neigh   | 0          | 0          | 0          |   0.0 |  0.00
Comm    | 0.0014256  | 0.0014256  | 0.0014256  |   0.0 |  0.30
Output  | 0.00023379 | 0.00023379 | 0.00023379 |   0.0 |  0.05
Modify  | 0.0008775  | 0.0008775  | 0.0008775  |   0.0 |  0.19
Other   |            | 0.004802   |            |       |  1.01

Nlocal:           3200 ave        3200 max        3200 min
Histogram: 1 0 0 0 0 0 0 0 0 0
Nghost:           3344 ave        3344 max        3344 min
Histogram: 1 0 0 0 0 0 0 0 0 0
Neighs:         197400 ave      197400 max      197400 min
Histogram: 1 0 0 0 0 0 0 0 0 0
FullNghs:            0 ave           0 max           0 min
Histogram: 1 0 0 0 0 0 0 0 0 0

Total # of neighbors = 197400
Ave neighs/atom = 61.6875
Neighbor list builds = 0
Dangerous builds = 0

displace_atoms 	all random ${atomjiggle} ${atomjiggle} ${atomjiggle} 87287 units box
displace_atoms 	all random 1e-05 ${atomjiggle} ${atomjiggle} 87287 units box
displace_atoms 	all random 1e-05 1e-05 ${atomjiggle} 87287 units box
displace_atoms 	all random 1e-05 1e-05 1e-05 87287 units box
Displacing atoms ...
minimize 	0.0 1e-8 20000 20000
Per MPI rank memory allocation (min/avg/max) = 6.292 | 6.292 | 6.292 Mbytes
   Step          Temp          PotEng        c_eatoms         Pxx            Pyy            Pzz             Lx             Ly             Lz           Fnorm     
        76   0             -8962.4707     -8962.4707     -4855.1497     -4855.1298     -0.00096622144  50.092067      28.920668      35.307298      0.0018569171 
        80   0             -8962.4707     -8962.4707     -4855.1555     -4855.1356     -0.011779125    50.092067      28.920668      35.307298      6.5723427e-05
        90   0             -8962.4707     -8962.4707     -4855.1531     -4855.1332     -0.0063900344   50.092067      28.920668      35.307298      5.3695965e-06
       100   0             -8962.4707     -8962.4707     -4855.1507     -4855.1309     -0.0011512521   50.092067      28.920668      35.307298      5.7223554e-07
       110   0             -8962.4707     -8962.4707     -4855.1503     -4855.1304     -0.00012465594  50.092067      28.920668      35.307298      9.0409633e-08
       119   0             -8962.4707     -8962.4707     -4855.1502     -4855.1304     -6.5769993e-06  50.092067      28.920668      35.307298      8.8373301e-09
Loop time of 0.460298 on 1 procs for 43 steps with 3200 atoms

100.0% CPU use with 1 MPI tasks x no OpenMP threads

Minimization stats:
  Stopping criterion = force tolerance
  Energy initial, next-to-last, final = 
     -8962.47073941504  -8962.47073971322  -8962.47073971329
  Force two-norm initial, final = 0.0018569171 8.8373301e-09
  Force max component initial, final = 9.7625584e-05 5.3059648e-10
  Final line search alpha, max atom move = 1 5.3059648e-10
  Iterations, force evaluations = 43 86

MPI task timing breakdown:
Section |  min time  |  avg time  |  max time  |%varavg| %total
---------------------------------------------------------------
Pair    | 0.4534     | 0.4534     | 0.4534     |   0.0 | 98.50
Neigh   | 0          | 0          | 0          |   0.0 |  0.00
Comm    | 0.0013379  | 0.0013379  | 0.0013379  |   0.0 |  0.29
Output  | 0.00023521 | 0.00023521 | 0.00023521 |   0.0 |  0.05
Modify  | 0.0008062  | 0.0008062  | 0.0008062  |   0.0 |  0.18
Other   |            | 0.004517   |            |       |  0.98

Nlocal:           3200 ave        3200 max        3200 min
Histogram: 1 0 0 0 0 0 0 0 0 0
Nghost:           3344 ave        3344 max        3344 min
Histogram: 1 0 0 0 0 0 0 0 0 0
Neighs:         197400 ave      197400 max      197400 min
Histogram: 1 0 0 0 0 0 0 0 0 0
FullNghs:            0 ave           0 max           0 min
Histogram: 1 0 0 0 0 0 0 0 0 0

Total # of neighbors = 197400
Ave neighs/atom = 61.6875
Neighbor list builds = 0
Dangerous builds = 0

variable 	Ef equal "c_eatoms"
variable 	Efo equal $Ef
variable 	Efo equal -8962.47073971326f
variable	Cf equal 1.60217657e-16
variable 	A equal (${xdim}*${ydim})*1e-20
variable 	A equal (50.0920670213607*${ydim})*1e-20
variable 	A equal (50.0920670213607*28.9206683790474)*1e-20
variable 	SFE equal ((${Ef}-${Eo})*${Cf})/${A}
variable 	SFE equal ((-8962.47073971326-${Eo})*${Cf})/${A}
variable 	SFE equal ((-8962.47073971326--8964.07633391985)*${Cf})/${A}
variable 	SFE equal ((-8962.47073971326--8964.07633391985)*1.60217657e-16)/${A}
variable 	SFE equal ((-8962.47073971326--8964.07633391985)*1.60217657e-16)/1.44869605874579e-17
variable 	Efomj equal ${Ef}*${Cf}/${A}
variable 	Efomj equal -8962.47073971326*${Cf}/${A}
variable 	Efomj equal -8962.47073971326*1.60217657e-16/${A}
variable 	Efomj equal -8962.47073971326*1.60217657e-16/1.44869605874579e-17

####################################
print "Initial energy of atoms = ${Eo} eV"
Initial energy of atoms = -8964.07633391985 eV
print "Initial energy before twinning Efo = ${Ef} $Efomj" # in SFE in mJ/m^2"
Initial energy before twinning Efo = -8962.47073971326 -8962.47073971326fomj

#----------- for twin fault energy -----------------------
variable	Ndiscrt equal 30
variable    	i loop ${Ndiscrt}
variable    	i loop 30
label       	loop

variable 	xt_displace equal -1*(${latparam1}/sqrt(6)*${i}/${Ndiscrt})
variable 	xt_displace equal -1*(4.09000014545435/sqrt(6)*${i}/${Ndiscrt})
variable 	xt_displace equal -1*(4.09000014545435/sqrt(6)*30/${Ndiscrt})
variable 	xt_displace equal -1*(4.09000014545435/sqrt(6)*30/30)
variable 	Bxt_displace equal 1.0+${i}/${Ndiscrt}
variable 	Bxt_displace equal 1.0+30/${Ndiscrt}
variable 	Bxt_displace equal 1.0+30/30

displace_atoms 	top2 move ${xt_displace} 0.0 0.0 units box
displace_atoms 	top2 move -1.66973556737869 0.0 0.0 units box
Displacing atoms ...

fix 		1 all setforce 0 0 NULL
min_style 	cg
minimize 	0.0 1e-8 20000 20000
Per MPI rank memory allocation (min/avg/max) = 6.292 | 6.292 | 6.292 Mbytes
   Step          Temp          PotEng        c_eatoms         Pxx            Pyy            Pzz             Lx             Ly             Lz           Fnorm     
       119   0             -8960.762      -8960.762      -5272.7477     -5272.7159     -1602.3658      50.092067      28.920668      35.307297      0.75198358   
       120   0             -8960.8315     -8960.8315     -5279.5038     -5279.472      -1644.4539      50.092067      28.920668      35.307297      0.4128404    
       130   0             -8960.9141     -8960.9141     -4571.107      -4571.0742     -118.17645      50.092067      28.920668      35.307297      0.06441147   
       140   0             -8960.9158     -8960.9158     -4515.6248     -4515.5919     -0.82649182     50.092067      28.920668      35.307297      0.00018072892
       150   0             -8960.9158     -8960.9158     -4515.2423     -4515.2094      0.008998223    50.092067      28.920668      35.307297      8.4776983e-06
       160   0             -8960.9158     -8960.9158     -4515.2462     -4515.2133     -0.0003095945   50.092067      28.920668      35.307297      3.7977707e-08
       168   0             -8960.9158     -8960.9158     -4515.2461     -4515.2131      5.7958994e-06  50.092067      28.920668      35.307297      7.6253956e-09
Loop time of 0.528531 on 1 procs for 49 steps with 3200 atoms

100.0% CPU use with 1 MPI tasks x no OpenMP threads

Minimization stats:
  Stopping criterion = force tolerance
  Energy initial, next-to-last, final = 
     -8960.76201635601  -8960.91581596771  -8960.91581596775
  Force two-norm initial, final = 0.75198358 7.6253956e-09
  Force max component initial, final = 0.027255767 4.5425802e-10
  Final line search alpha, max atom move = 1 4.5425802e-10
  Iterations, force evaluations = 49 98

MPI task timing breakdown:
Section |  min time  |  avg time  |  max time  |%varavg| %total
---------------------------------------------------------------
Pair    | 0.52067    | 0.52067    | 0.52067    |   0.0 | 98.51
Neigh   | 0          | 0          | 0          |   0.0 |  0.00
Comm    | 0.0015324  | 0.0015324  | 0.0015324  |   0.0 |  0.29
Output  | 0.0002926  | 0.0002926  | 0.0002926  |   0.0 |  0.06
Modify  | 0.00093592 | 0.00093592 | 0.00093592 |   0.0 |  0.18
Other   |            | 0.0051     |            |       |  0.96

Nlocal:           3200 ave        3200 max        3200 min
Histogram: 1 0 0 0 0 0 0 0 0 0
Nghost:           3344 ave        3344 max        3344 min
Histogram: 1 0 0 0 0 0 0 0 0 0
Neighs:         197400 ave      197400 max      197400 min
Histogram: 1 0 0 0 0 0 0 0 0 0
FullNghs:            0 ave           0 max           0 min
Histogram: 1 0 0 0 0 0 0 0 0 0

Total # of neighbors = 197400
Ave neighs/atom = 61.6875
Neighbor list builds = 0
Dangerous builds = 0

variable 	Eftwn equal "c_eatoms"
variable 	Eftwnmj equal ${Eftwn}*${Cf}/${A}
variable 	Eftwnmj equal -8960.91581596779*${Cf}/${A}
variable 	Eftwnmj equal -8960.91581596779*1.60217657e-16/${A}
variable 	Eftwnmj equal -8960.91581596779*1.60217657e-16/1.44869605874579e-17
variable 	TFEf equal ${Eftwnmj}-${Efomj}
variable 	TFEf equal -99102.7019050192-${Efomj}
variable 	TFEf equal -99102.7019050192--99119.8984893413

print 		"displacement and TFE = ${Bxt_displace} ${TFEf}" # in SFE in mJ/m^2"
displacement and TFE = 2 17.1965843220969

next 		i
jump		TFE_displacement1.lmpin
label 		break
Total wall time: 0:00:59
